 argument  1 = diethyletherUnoptimized.txt



============================== echo of input deck ==============================
echo

start molecule

title "diethylether"
memory total 2 gb

charge 0
geometry units angstrom print xyz
    O         -0.17460       -0.24690        0.00000
    C          1.26190       -0.32080        0.00000
    C         -0.72310        1.08280       -0.00000
    C          1.72800       -1.78680       -0.00000
    C         -2.26060        1.03360       -0.00000
    H          1.66840        0.16990        0.88840
    H          1.66840        0.16990       -0.88840
    H         -0.39600        1.62960       -0.88840
    H         -0.39600        1.62960        0.88840
    H          2.81920       -1.82860       -0.00000
    H          1.36130       -2.30530       -0.88800
    H          1.36130       -2.30530        0.88800
    H         -2.66380        2.04850       -0.00000
    H         -2.62730        0.51500       -0.88800
    H         -2.62730        0.51500        0.88800
end

basis spherical
 * library cc-pVDZ
end

task scf optimize
================================================================================


                                         
                                         


             Northwest Computational Chemistry Package (NWChem) 7.2.2
             --------------------------------------------------------


                    Environmental Molecular Sciences Laboratory
                       Pacific Northwest National Laboratory
                                Richland, WA 99352

                              Copyright (c) 1994-2022
                       Pacific Northwest National Laboratory
                            Battelle Memorial Institute

             NWChem is an open-source computational chemistry package
                        distributed under the terms of the
                      Educational Community License (ECL) 2.0
             A copy of the license is included with this distribution
                              in the LICENSE.TXT file

                                  ACKNOWLEDGMENT
                                  --------------

            This software and its documentation were developed at the
            EMSL at Pacific Northwest National Laboratory, a multiprogram
            national laboratory, operated for the U.S. Department of Energy
            by Battelle under Contract Number DE-AC05-76RL01830. Support
            for this work was provided by the Department of Energy Office
            of Biological and Environmental Research, Office of Basic
            Energy Sciences, and the Office of Advanced Scientific Computing.


           Job information
           ---------------

    hostname        = Eliass-MacBook-Air.local
    program         = nwchem
    date            = Mon Feb 19 12:20:10 2024

    compiled        = Sun_Dec_10_10:51:21_2023
    source          = /private/tmp/nwchem-20231210-5888-3uvdjr/nwchem-7.2.2
    nwchem branch   = 7.2.2
    nwchem revision = 74936fb9
    ga revision     = 5.8.0
    use scalapack   = T
    input           = diethyletherUnoptimized.txt
    prefix          = molecule.
    data base       = ./molecule.db
    status          = startup
    nproc           =        4
    time left       =     -1s



           Memory information
           ------------------

    heap     =   67108860 doubles =    512.0 Mbytes
    stack    =   67108865 doubles =    512.0 Mbytes
    global   =  134217728 doubles =   1024.0 Mbytes (distinct from heap & stack)
    total    =  268435453 doubles =   2048.0 Mbytes
    verify   = yes
    hardfail = no 


           Directory information
           ---------------------

  0 permanent = .
  0 scratch   = .




                                NWChem Input Module
                                -------------------


                                   diethylether
                                   ------------

 Scaling coordinates for geometry "geometry" by  1.889725989
 (inverse scale =  0.529177249)

 C2V symmetry detected

          ------
          auto-z
          ------
  no constraints, skipping    0.0000000000000000     
  no constraints, skipping    0.0000000000000000     


                             Geometry "geometry" -> ""
                             -------------------------

 Output coordinates in angstroms (scale by  1.889725989 to convert to a.u.)

  No.       Tag          Charge          X              Y              Z
 ---- ---------------- ---------- -------------- -------------- --------------
    1 O                    8.0000     0.00000000     0.00000000    -0.25328129
    2 C                    6.0000    -1.21555728     0.00000000     0.51574043
    3 C                    6.0000     1.21555728     0.00000000     0.51574043
    4 C                    6.0000    -2.44251848     0.00000000    -0.41212392
    5 C                    6.0000     2.44251848     0.00000000    -0.41212392
    6 H                    1.0000    -1.26416686     0.88840000     1.15107011
    7 H                    1.0000    -1.26416686    -0.88840000     1.15107011
    8 H                    1.0000     1.26416686    -0.88840000     1.15107011
    9 H                    1.0000     1.26416686     0.88840000     1.15107011
   10 H                    1.0000    -3.35764774     0.00000000     0.18375099
   11 H                    1.0000    -2.44248961    -0.88800000    -1.04723256
   12 H                    1.0000    -2.44248961     0.88800000    -1.04723256
   13 H                    1.0000     3.35764774     0.00000000     0.18375099
   14 H                    1.0000     2.44248961    -0.88800000    -1.04723256
   15 H                    1.0000     2.44248961     0.88800000    -1.04723256

      Atomic Mass 
      ----------- 

      O                 15.994910
      C                 12.000000
      H                  1.007825


 Effective nuclear repulsion energy (a.u.)     186.9302293770

            Nuclear Dipole moment (a.u.) 
            ----------------------------
        X                 Y               Z
 ---------------- ---------------- ----------------
     0.0000000000     0.0000000000     0.0000000000

      Symmetry information
      --------------------

 Group name             C2v       
 Group number             16
 Group order               4
 No. of unique centers     6

      Symmetry unique atoms

     1    2    4    6   10   11



                                Z-matrix (autoz)
                                -------- 

 Units are Angstrom for bonds and degrees for angles

      Type          Name      I     J     K     L     M      Value
      ----------- --------  ----- ----- ----- ----- ----- ----------
    1 Stretch                  1     2                       1.43839
    2 Stretch                  1     3                       1.43839
    3 Stretch                  2     4                       1.53830
    4 Stretch                  2     6                       1.09328
    5 Stretch                  2     7                       1.09328
    6 Stretch                  3     5                       1.53830
    7 Stretch                  3     8                       1.09328
    8 Stretch                  3     9                       1.09328
    9 Stretch                  4    10                       1.09203
   10 Stretch                  4    11                       1.09174
   11 Stretch                  4    12                       1.09174
   12 Stretch                  5    13                       1.09203
   13 Stretch                  5    14                       1.09174
   14 Stretch                  5    15                       1.09174
   15 Bend                     1     2     4               110.58288
   16 Bend                     1     2     6               110.38124
   17 Bend                     1     2     7               110.38124
   18 Bend                     1     3     5               110.58288
   19 Bend                     1     3     8               110.38124
   20 Bend                     1     3     9               110.38124
   21 Bend                     2     1     3               115.36106
   22 Bend                     2     4    10               109.83269
   23 Bend                     2     4    11               110.54044
   24 Bend                     2     4    12               110.54044
   25 Bend                     3     5    13               109.83269
   26 Bend                     3     5    14               110.54044
   27 Bend                     3     5    15               110.54044
   28 Bend                     4     2     6               108.36415
   29 Bend                     4     2     7               108.36415
   30 Bend                     5     3     8               108.36415
   31 Bend                     5     3     9               108.36415
   32 Bend                     6     2     7               108.70160
   33 Bend                     8     3     9               108.70160
   34 Bend                    10     4    11               108.50889
   35 Bend                    10     4    12               108.50889
   36 Bend                    11     4    12               108.85436
   37 Bend                    13     5    14               108.50889
   38 Bend                    13     5    15               108.50889
   39 Bend                    14     5    15               108.85436
   40 Torsion                  1     2     4    10         180.00000
   41 Torsion                  1     2     4    11          60.29614
   42 Torsion                  1     2     4    12         -60.29614
   43 Torsion                  1     3     5    13         180.00000
   44 Torsion                  1     3     5    14         -60.29614
   45 Torsion                  1     3     5    15          60.29614
   46 Torsion                  2     1     3     5         180.00000
   47 Torsion                  2     1     3     8          60.09693
   48 Torsion                  2     1     3     9         -60.09693
   49 Torsion                  3     1     2     4         180.00000
   50 Torsion                  3     1     2     6          60.09693
   51 Torsion                  3     1     2     7         -60.09693
   52 Torsion                  6     2     4    10         -58.89303
   53 Torsion                  6     2     4    11        -178.59689
   54 Torsion                  6     2     4    12          60.81083
   55 Torsion                  7     2     4    10          58.89303
   56 Torsion                  7     2     4    11         -60.81083
   57 Torsion                  7     2     4    12         178.59689
   58 Torsion                  8     3     5    13         -58.89303
   59 Torsion                  8     3     5    14          60.81083
   60 Torsion                  8     3     5    15        -178.59689
   61 Torsion                  9     3     5    13          58.89303
   62 Torsion                  9     3     5    14         178.59689
   63 Torsion                  9     3     5    15         -60.81083


            XYZ format geometry
            -------------------
    15
 geometry
 O                     0.00000000     0.00000000    -0.25328129
 C                    -1.21555728     0.00000000     0.51574043
 C                     1.21555728     0.00000000     0.51574043
 C                    -2.44251848     0.00000000    -0.41212392
 C                     2.44251848     0.00000000    -0.41212392
 H                    -1.26416686     0.88840000     1.15107011
 H                    -1.26416686    -0.88840000     1.15107011
 H                     1.26416686    -0.88840000     1.15107011
 H                     1.26416686     0.88840000     1.15107011
 H                    -3.35764774     0.00000000     0.18375099
 H                    -2.44248961    -0.88800000    -1.04723256
 H                    -2.44248961     0.88800000    -1.04723256
 H                     3.35764774     0.00000000     0.18375099
 H                     2.44248961    -0.88800000    -1.04723256
 H                     2.44248961     0.88800000    -1.04723256

 ==============================================================================
                                internuclear distances
 ------------------------------------------------------------------------------
       center one      |      center two      | atomic units |  angstroms
 ------------------------------------------------------------------------------
    2 C                |   1 O                |     2.71817  |     1.43839
    3 C                |   1 O                |     2.71817  |     1.43839
    4 C                |   2 C                |     2.90696  |     1.53830
    5 C                |   3 C                |     2.90696  |     1.53830
    6 H                |   2 C                |     2.06600  |     1.09328
    7 H                |   2 C                |     2.06600  |     1.09328
    8 H                |   3 C                |     2.06600  |     1.09328
    9 H                |   3 C                |     2.06600  |     1.09328
   10 H                |   4 C                |     2.06364  |     1.09203
   11 H                |   4 C                |     2.06310  |     1.09174
   12 H                |   4 C                |     2.06310  |     1.09174
   13 H                |   5 C                |     2.06364  |     1.09203
   14 H                |   5 C                |     2.06310  |     1.09174
   15 H                |   5 C                |     2.06310  |     1.09174
 ------------------------------------------------------------------------------
                         number of included internuclear distances:         14
 ==============================================================================



 ==============================================================================
                                 internuclear angles
 ------------------------------------------------------------------------------
        center 1       |       center 2       |       center 3       |  degrees
 ------------------------------------------------------------------------------
    2 C                |   1 O                |   3 C                |   115.36
    1 O                |   2 C                |   4 C                |   110.58
    1 O                |   2 C                |   6 H                |   110.38
    1 O                |   2 C                |   7 H                |   110.38
    4 C                |   2 C                |   6 H                |   108.36
    4 C                |   2 C                |   7 H                |   108.36
    6 H                |   2 C                |   7 H                |   108.70
    1 O                |   3 C                |   5 C                |   110.58
    1 O                |   3 C                |   8 H                |   110.38
    1 O                |   3 C                |   9 H                |   110.38
    5 C                |   3 C                |   8 H                |   108.36
    5 C                |   3 C                |   9 H                |   108.36
    8 H                |   3 C                |   9 H                |   108.70
    2 C                |   4 C                |  10 H                |   109.83
    2 C                |   4 C                |  11 H                |   110.54
    2 C                |   4 C                |  12 H                |   110.54
   10 H                |   4 C                |  11 H                |   108.51
   10 H                |   4 C                |  12 H                |   108.51
   11 H                |   4 C                |  12 H                |   108.85
    3 C                |   5 C                |  13 H                |   109.83
    3 C                |   5 C                |  14 H                |   110.54
    3 C                |   5 C                |  15 H                |   110.54
   13 H                |   5 C                |  14 H                |   108.51
   13 H                |   5 C                |  15 H                |   108.51
   14 H                |   5 C                |  15 H                |   108.85
 ------------------------------------------------------------------------------
                            number of included internuclear angles:         25
 ==============================================================================



  library name resolved from: .nwchemrc
  library file name is: </opt/homebrew/Cellar/nwchem/7.2.2/share/nwchem/libraries/>
  


 Summary of "ao basis" -> "" (spherical)
 ------------------------------------------------------------------------------
       Tag                 Description            Shells   Functions and Types
 ---------------- ------------------------------  ------  ---------------------
 *                          cc-pVDZ                   on all atoms 




                           NWChem Geometry Optimization
                           ----------------------------




                                   diethylether


  no constraints, skipping    0.0000000000000000     
 maximum gradient threshold         (gmax) =   0.000450
 rms gradient threshold             (grms) =   0.000300
 maximum cartesian step threshold   (xmax) =   0.001800
 rms cartesian step threshold       (xrms) =   0.001200
 fixed trust radius                (trust) =   0.300000
 maximum step size to saddle      (sadstp) =   0.100000
 energy precision                  (eprec) =   1.0D-07
 maximum number of steps          (nptopt) =   40
 initial hessian option           (inhess) =    0
 line search option               (linopt) =    1
 hessian update option            (modupd) =    1
 saddle point option              (modsad) =    0
 initial eigen-mode to follow     (moddir) =    0
 initial variable to follow       (vardir) =    0
 follow first negative mode     (firstneg) =    T
 apply conjugacy                    (opcg) =    F
 source of zmatrix                         =   autoz   


          -------------------
          Energy Minimization
          -------------------


 Names of Z-matrix variables 
    1              2              3              4              5         
    6              7              8              9             10         
   11             12             13             14             15         
   16             17             18             19             20         
   21             22             23             24             25         
   26             27             28             29             30         
   31             32             33             34             35         
   36             37             38             39             40         
   41             42             43             44             45         
   46             47             48             49             50         
   51             52             53             54             55         
   56             57             58             59             60         
   61             62             63         

 Variables with the same non-blank name are constrained to be equal


 Using diagonal initial Hessian 
 Scaling for Hessian diagonals: bonds = 1.00  angles = 0.25  torsions = 0.10

          --------
          Step   0
          --------


                         Geometry "geometry" -> "geometry"
                         ---------------------------------

 Output coordinates in angstroms (scale by  1.889725989 to convert to a.u.)

  No.       Tag          Charge          X              Y              Z
 ---- ---------------- ---------- -------------- -------------- --------------
    1 O                    8.0000     0.00000000     0.00000000    -0.25328129
    2 C                    6.0000    -1.21555728     0.00000000     0.51574043
    3 C                    6.0000     1.21555728     0.00000000     0.51574043
    4 C                    6.0000    -2.44251848     0.00000000    -0.41212392
    5 C                    6.0000     2.44251848     0.00000000    -0.41212392
    6 H                    1.0000    -1.26416686     0.88840000     1.15107011
    7 H                    1.0000    -1.26416686    -0.88840000     1.15107011
    8 H                    1.0000     1.26416686    -0.88840000     1.15107011
    9 H                    1.0000     1.26416686     0.88840000     1.15107011
   10 H                    1.0000    -3.35764774     0.00000000     0.18375099
   11 H                    1.0000    -2.44248961    -0.88800000    -1.04723256
   12 H                    1.0000    -2.44248961     0.88800000    -1.04723256
   13 H                    1.0000     3.35764774     0.00000000     0.18375099
   14 H                    1.0000     2.44248961    -0.88800000    -1.04723256
   15 H                    1.0000     2.44248961     0.88800000    -1.04723256

      Atomic Mass 
      ----------- 

      O                 15.994910
      C                 12.000000
      H                  1.007825


 Effective nuclear repulsion energy (a.u.)     186.9302293770

            Nuclear Dipole moment (a.u.) 
            ----------------------------
        X                 Y               Z
 ---------------- ---------------- ----------------
     0.0000000000     0.0000000000     0.0000000000

      Symmetry information
      --------------------

 Group name             C2v       
 Group number             16
 Group order               4
 No. of unique centers     6

      Symmetry unique atoms

     1    2    4    6   10   11

                      Basis "ao basis" -> "ao basis" (spherical)
                      -----
  O (Oxygen)
  ----------
            Exponent  Coefficients 
       -------------- ---------------------------------------------------------
  1 S  1.17200000E+04  0.000710
  1 S  1.75900000E+03  0.005470
  1 S  4.00800000E+02  0.027837
  1 S  1.13700000E+02  0.104800
  1 S  3.70300000E+01  0.283062
  1 S  1.32700000E+01  0.448719
  1 S  5.02500000E+00  0.270952
  1 S  1.01300000E+00  0.015458

  2 S  1.17200000E+04 -0.000160
  2 S  1.75900000E+03 -0.001263
  2 S  4.00800000E+02 -0.006267
  2 S  1.13700000E+02 -0.025716
  2 S  3.70300000E+01 -0.070924
  2 S  1.32700000E+01 -0.165411
  2 S  5.02500000E+00 -0.116955
  2 S  1.01300000E+00  0.557368

  3 S  3.02300000E-01  1.000000

  4 P  1.77000000E+01  0.043018
  4 P  3.85400000E+00  0.228913
  4 P  1.04600000E+00  0.508728

  5 P  2.75300000E-01  1.000000

  6 D  1.18500000E+00  1.000000

  C (Carbon)
  ----------
            Exponent  Coefficients 
       -------------- ---------------------------------------------------------
  1 S  6.66500000E+03  0.000692
  1 S  1.00000000E+03  0.005329
  1 S  2.28000000E+02  0.027077
  1 S  6.47100000E+01  0.101718
  1 S  2.10600000E+01  0.274740
  1 S  7.49500000E+00  0.448564
  1 S  2.79700000E+00  0.285074
  1 S  5.21500000E-01  0.015204

  2 S  6.66500000E+03 -0.000146
  2 S  1.00000000E+03 -0.001154
  2 S  2.28000000E+02 -0.005725
  2 S  6.47100000E+01 -0.023312
  2 S  2.10600000E+01 -0.063955
  2 S  7.49500000E+00 -0.149981
  2 S  2.79700000E+00 -0.127262
  2 S  5.21500000E-01  0.544529

  3 S  1.59600000E-01  1.000000

  4 P  9.43900000E+00  0.038109
  4 P  2.00200000E+00  0.209480
  4 P  5.45600000E-01  0.508557

  5 P  1.51700000E-01  1.000000

  6 D  5.50000000E-01  1.000000

  H (Hydrogen)
  ------------
            Exponent  Coefficients 
       -------------- ---------------------------------------------------------
  1 S  1.30100000E+01  0.019685
  1 S  1.96200000E+00  0.137977
  1 S  4.44600000E-01  0.478148

  2 S  1.22000000E-01  1.000000

  3 P  7.27000000E-01  1.000000



 Summary of "ao basis" -> "ao basis" (spherical)
 ------------------------------------------------------------------------------
       Tag                 Description            Shells   Functions and Types
 ---------------- ------------------------------  ------  ---------------------
 O                          cc-pVDZ                  6       14   3s2p1d
 C                          cc-pVDZ                  6       14   3s2p1d
 H                          cc-pVDZ                  3        5   2s1p


                                 NWChem SCF Module
                                 -----------------


                                   diethylether



  ao basis        = "ao basis"
  functions       =   120
  atoms           =    15
  closed shells   =    21
  open shells     =     0
  charge          =   0.00
  wavefunction    = RHF 
  input vectors   = atomic
  output vectors  = ./molecule.movecs
  use symmetry    = T
  symmetry adapt  = T


 Summary of "ao basis" -> "ao basis" (spherical)
 ------------------------------------------------------------------------------
       Tag                 Description            Shells   Functions and Types
 ---------------- ------------------------------  ------  ---------------------
 O                          cc-pVDZ                  6       14   3s2p1d
 C                          cc-pVDZ                  6       14   3s2p1d
 H                          cc-pVDZ                  3        5   2s1p


      Symmetry analysis of basis
      --------------------------

        a1         41
        a2         20
        b1         37
        b2         22


 Forming initial guess at       0.1s


      Superposition of Atomic Density Guess
      -------------------------------------

 Sum of atomic energies:        -230.42104555

      Non-variational initial energy
      ------------------------------

 Total energy =    -233.484144
 1-e energy   =    -680.385503
 2-e energy   =     259.971130
 HOMO         =      -0.330555
 LUMO         =       0.106373


      Symmetry analysis of molecular orbitals - initial
      -------------------------------------------------

  Numbering of irreducible representations: 

     1 a1          2 a2          3 b1          4 b2      

  Orbital symmetries:

     1 a1          2 b1          3 a1          4 a1          5 b1      
     6 a1          7 b1          8 a1          9 b1         10 a1      
    11 b1         12 b2         13 a2         14 a1         15 a1      
    16 b2         17 b1         18 b1         19 a2         20 a1      
    21 b2         22 a1         23 b1         24 a1         25 a1      
    26 b2         27 b1         28 a2         29 a1         30 b1      
    31 b2      


 Starting SCF solution at       0.2s



 ----------------------------------------------
         Quadratically convergent ROHF

 Convergence threshold     :          1.000E-04
 Maximum no. of iterations :           30
 Final Fock-matrix accuracy:          1.000E-07
 ----------------------------------------------


 Integral file          = ./molecule.aoints.0
 Record size in doubles =  65536        No. of integs per rec  =  43688
 Max. records in memory =     69        Max. records in file   = 160452
 No. of bits per label  =      8        No. of bits per value  =     64


 #quartets = 4.072D+05 #integrals = 4.977D+06 #direct =  0.0% #cached =100.0%


File balance: exchanges=     3  moved=    16  time=   0.0


              iter       energy          gnorm     gmax       time
             ----- ------------------- --------- --------- --------
                 1     -232.0903572308  9.43D-01  2.07D-01      0.6
                 2     -232.1483030472  3.98D-01  8.17D-02      0.6
                 3     -232.1577271525  2.15D-02  4.66D-03      0.7
                 4     -232.1577684030  4.40D-04  1.18D-04      0.8
                 5     -232.1577684249  3.26D-06  7.03D-07      0.8


       Final RHF  results 
       ------------------ 

         Total SCF energy =   -232.157768424890
      One-electron energy =   -685.143468071349
      Two-electron energy =    266.055470269453
 Nuclear repulsion energy =    186.930229377005

        Time for solution =      0.6s



       Symmetry analysis of molecular orbitals - final
       -----------------------------------------------

  Numbering of irreducible representations: 

     1 a1          2 a2          3 b1          4 b2      

  Orbital symmetries:

     1 a1          2 b1          3 a1          4 b1          5 a1      
     6 a1          7 b1          8 a1          9 b1         10 a1      
    11 b2         12 b1         13 a2         14 a1         15 a1      
    16 b2         17 b1         18 a2         19 b1         20 a1      
    21 b2         22 a1         23 b1         24 a1         25 b2      
    26 a1         27 b1         28 a2         29 b1         30 b2      
    31 a2      

             Final eigenvalues
             -----------------

              1      
    1  -20.5457
    2  -11.2770
    3  -11.2770
    4  -11.2207
    5  -11.2207
    6   -1.3508
    7   -1.0337
    8   -0.9811
    9   -0.8421
   10   -0.8203
   11   -0.6647
   12   -0.6513
   13   -0.6045
   14   -0.5845
   15   -0.5480
   16   -0.5281
   17   -0.5187
   18   -0.4904
   19   -0.4871
   20   -0.4555
   21   -0.4141
   22    0.1859
   23    0.2006
   24    0.2242
   25    0.2340
   26    0.2623
   27    0.2643
   28    0.2721
   29    0.2862
   30    0.2913
   31    0.3016

                       ROHF Final Molecular Orbital Analysis
                       -------------------------------------

 Vector    6  Occ=2.000000D+00  E=-1.350836D+00  Symmetry=a1
              MO Center= -3.2D-17,  3.3D-19, -4.9D-02, r^2= 7.1D-01
   Bfn.  Coefficient  Atom+Function         Bfn.  Coefficient  Atom+Function  
  ----- ------------  ---------------      ----- ------------  ---------------
     3      0.457011   1 O  s                 2      0.406542   1 O  s         

 Vector    7  Occ=2.000000D+00  E=-1.033745D+00  Symmetry=b1
              MO Center= -1.6D-16, -5.5D-18,  5.7D-02, r^2= 4.5D+00
   Bfn.  Coefficient  Atom+Function         Bfn.  Coefficient  Atom+Function  
  ----- ------------  ---------------      ----- ------------  ---------------
    16      0.212722   2 C  s                30     -0.212722   3 C  s         
    44      0.192417   4 C  s                58     -0.192417   5 C  s         

 Vector    8  Occ=2.000000D+00  E=-9.811250D-01  Symmetry=a1
              MO Center= -1.5D-14,  6.5D-16, -1.2D-01, r^2= 5.9D+00
   Bfn.  Coefficient  Atom+Function         Bfn.  Coefficient  Atom+Function  
  ----- ------------  ---------------      ----- ------------  ---------------
    44      0.231549   4 C  s                58      0.231549   5 C  s         
     3     -0.164820   1 O  s         

 Vector    9  Occ=2.000000D+00  E=-8.421480D-01  Symmetry=b1
              MO Center= -1.8D-16,  4.5D-18, -6.4D-02, r^2= 5.8D+00
   Bfn.  Coefficient  Atom+Function         Bfn.  Coefficient  Atom+Function  
  ----- ------------  ---------------      ----- ------------  ---------------
    16     -0.184603   2 C  s                30      0.184603   3 C  s         
    44      0.184007   4 C  s                58     -0.184007   5 C  s         
     4      0.180851   1 O  px        

 Vector   10  Occ=2.000000D+00  E=-8.203228D-01  Symmetry=a1
              MO Center= -1.0D-16, -1.2D-17,  3.4D-01, r^2= 4.2D+00
   Bfn.  Coefficient  Atom+Function         Bfn.  Coefficient  Atom+Function  
  ----- ------------  ---------------      ----- ------------  ---------------
    16     -0.190177   2 C  s                30     -0.190177   3 C  s         
     3      0.178381   1 O  s                71     -0.150379   6 H  s         
    76     -0.150379   7 H  s                81     -0.150379   8 H  s         
    86     -0.150379   9 H  s         

 Vector   11  Occ=2.000000D+00  E=-6.646953D-01  Symmetry=b2
              MO Center=  9.0D-17, -2.3D-18,  3.1D-01, r^2= 3.0D+00
   Bfn.  Coefficient  Atom+Function         Bfn.  Coefficient  Atom+Function  
  ----- ------------  ---------------      ----- ------------  ---------------
     5      0.294686   1 O  py               19      0.242331   2 C  py        
    33      0.242331   3 C  py                8      0.194884   1 O  py        
    71      0.152523   6 H  s                76     -0.152523   7 H  s         
    81     -0.152523   8 H  s                86      0.152523   9 H  s         

 Vector   12  Occ=2.000000D+00  E=-6.513187D-01  Symmetry=b1
              MO Center= -9.4D-16,  1.0D-17,  2.5D-01, r^2= 3.4D+00
   Bfn.  Coefficient  Atom+Function         Bfn.  Coefficient  Atom+Function  
  ----- ------------  ---------------      ----- ------------  ---------------
     4      0.340978   1 O  px               20      0.219384   2 C  pz        
    34     -0.219384   3 C  pz                7      0.196031   1 O  px        

 Vector   13  Occ=2.000000D+00  E=-6.044608D-01  Symmetry=a2
              MO Center=  2.1D-15,  1.3D-16,  1.0D-01, r^2= 5.3D+00
   Bfn.  Coefficient  Atom+Function         Bfn.  Coefficient  Atom+Function  
  ----- ------------  ---------------      ----- ------------  ---------------
    19      0.231671   2 C  py               33     -0.231671   3 C  py        
    47      0.207439   4 C  py               61     -0.207439   5 C  py        
    71      0.156529   6 H  s                76     -0.156529   7 H  s         
    81      0.156529   8 H  s                86     -0.156529   9 H  s         

 Vector   14  Occ=2.000000D+00  E=-5.844621D-01  Symmetry=a1
              MO Center=  2.7D-17,  5.7D-20, -1.3D-01, r^2= 4.2D+00
   Bfn.  Coefficient  Atom+Function         Bfn.  Coefficient  Atom+Function  
  ----- ------------  ---------------      ----- ------------  ---------------
     6      0.334506   1 O  pz                9      0.233554   1 O  pz        
    18      0.214791   2 C  px               32     -0.214791   3 C  px        
    46     -0.203524   4 C  px               60      0.203524   5 C  px        

 Vector   15  Occ=2.000000D+00  E=-5.479565D-01  Symmetry=a1
              MO Center= -1.5D-16, -1.1D-17, -3.1D-01, r^2= 8.3D+00
   Bfn.  Coefficient  Atom+Function         Bfn.  Coefficient  Atom+Function  
  ----- ------------  ---------------      ----- ------------  ---------------
    91      0.252376  10 H  s               106      0.252376  13 H  s         
    48      0.235575   4 C  pz               62      0.235575   5 C  pz        
    46     -0.175513   4 C  px               60      0.175513   5 C  px        

 Vector   16  Occ=2.000000D+00  E=-5.281325D-01  Symmetry=b2
              MO Center= -3.8D-16,  1.9D-17, -5.9D-01, r^2= 6.3D+00
   Bfn.  Coefficient  Atom+Function         Bfn.  Coefficient  Atom+Function  
  ----- ------------  ---------------      ----- ------------  ---------------
    47      0.276233   4 C  py               61      0.276233   5 C  py        
     5     -0.233101   1 O  py               96     -0.207537  11 H  s         
   101      0.207537  12 H  s               111     -0.207537  14 H  s         
   116      0.207537  15 H  s                 8     -0.171744   1 O  py        

 Vector   17  Occ=2.000000D+00  E=-5.186865D-01  Symmetry=b1
              MO Center=  4.1D-14, -4.5D-17, -1.9D-01, r^2= 7.5D+00
   Bfn.  Coefficient  Atom+Function         Bfn.  Coefficient  Atom+Function  
  ----- ------------  ---------------      ----- ------------  ---------------
    48      0.234549   4 C  pz               62     -0.234549   5 C  pz        
    91      0.232029  10 H  s               106     -0.232029  13 H  s         
     4     -0.190390   1 O  px        

 Vector   18  Occ=2.000000D+00  E=-4.903717D-01  Symmetry=a2
              MO Center= -2.0D-15,  1.4D-16, -1.2D-03, r^2= 5.9D+00
   Bfn.  Coefficient  Atom+Function         Bfn.  Coefficient  Atom+Function  
  ----- ------------  ---------------      ----- ------------  ---------------
    19      0.219877   2 C  py               33     -0.219877   3 C  py        
    47     -0.220032   4 C  py               61      0.220032   5 C  py        
    96      0.177869  11 H  s               101     -0.177869  12 H  s         
   111     -0.177869  14 H  s               116      0.177869  15 H  s         
    71      0.173942   6 H  s                76     -0.173942   7 H  s         

 Vector   19  Occ=2.000000D+00  E=-4.870848D-01  Symmetry=b1
              MO Center=  4.6D-17, -5.5D-19,  4.4D-02, r^2= 5.1D+00
   Bfn.  Coefficient  Atom+Function         Bfn.  Coefficient  Atom+Function  
  ----- ------------  ---------------      ----- ------------  ---------------
    18      0.257866   2 C  px               32      0.257866   3 C  px        
    46     -0.247821   4 C  px               60     -0.247821   5 C  px        
     4     -0.173996   1 O  px               20      0.161027   2 C  pz        
    34     -0.161027   3 C  pz        

 Vector   20  Occ=2.000000D+00  E=-4.555178D-01  Symmetry=a1
              MO Center= -4.9D-14,  1.3D-15,  5.5D-02, r^2= 3.0D+00
   Bfn.  Coefficient  Atom+Function         Bfn.  Coefficient  Atom+Function  
  ----- ------------  ---------------      ----- ------------  ---------------
     6      0.410067   1 O  pz                9      0.332808   1 O  pz        
    20     -0.239897   2 C  pz               34     -0.239897   3 C  pz        
     3     -0.159425   1 O  s         

 Vector   21  Occ=2.000000D+00  E=-4.141445D-01  Symmetry=b2
              MO Center=  9.6D-16, -1.6D-16,  2.2D-01, r^2= 2.2D+00
   Bfn.  Coefficient  Atom+Function         Bfn.  Coefficient  Atom+Function  
  ----- ------------  ---------------      ----- ------------  ---------------
     5      0.513917   1 O  py                8      0.416278   1 O  py        
    71     -0.178637   6 H  s                76      0.178637   7 H  s         
    81      0.178637   8 H  s                86     -0.178637   9 H  s         
    19     -0.169662   2 C  py               33     -0.169662   3 C  py        

 Vector   22  Occ=0.000000D+00  E= 1.859225D-01  Symmetry=a1
              MO Center=  1.6D-15,  9.3D-18,  7.3D-01, r^2= 8.3D+00
   Bfn.  Coefficient  Atom+Function         Bfn.  Coefficient  Atom+Function  
  ----- ------------  ---------------      ----- ------------  ---------------
    17      1.073514   2 C  s                31      1.073514   3 C  s         
    45      0.806890   4 C  s                59      0.806890   5 C  s         
    72     -0.711366   6 H  s                77     -0.711366   7 H  s         
    82     -0.711366   8 H  s                87     -0.711366   9 H  s         
    23      0.462300   2 C  pz               37      0.462300   3 C  pz        

 Vector   23  Occ=0.000000D+00  E= 2.005683D-01  Symmetry=b1
              MO Center=  1.2D-13,  2.6D-14,  6.9D-02, r^2= 1.2D+01
   Bfn.  Coefficient  Atom+Function         Bfn.  Coefficient  Atom+Function  
  ----- ------------  ---------------      ----- ------------  ---------------
    45      1.283316   4 C  s                59     -1.283316   5 C  s         
    92     -0.779231  10 H  s               107      0.779231  13 H  s         
    17      0.743878   2 C  s                31     -0.743878   3 C  s         
    97     -0.510903  11 H  s               102     -0.510903  12 H  s         
   112      0.510903  14 H  s               117      0.510903  15 H  s         

 Vector   24  Occ=0.000000D+00  E= 2.242445D-01  Symmetry=a1
              MO Center= -3.8D-14, -8.4D-17, -2.0D-01, r^2= 1.1D+01
   Bfn.  Coefficient  Atom+Function         Bfn.  Coefficient  Atom+Function  
  ----- ------------  ---------------      ----- ------------  ---------------
    45      1.481162   4 C  s                59      1.481162   5 C  s         
    17     -0.915717   2 C  s                31     -0.915717   3 C  s         
    97     -0.714244  11 H  s               102     -0.714244  12 H  s         
   112     -0.714244  14 H  s               117     -0.714244  15 H  s         
    72      0.550447   6 H  s                77      0.550447   7 H  s         

 Vector   25  Occ=0.000000D+00  E= 2.339819D-01  Symmetry=b2
              MO Center=  1.6D-17, -4.5D-16,  5.7D-01, r^2= 8.4D+00
   Bfn.  Coefficient  Atom+Function         Bfn.  Coefficient  Atom+Function  
  ----- ------------  ---------------      ----- ------------  ---------------
    72      0.976211   6 H  s                77     -0.976211   7 H  s         
    82     -0.976211   8 H  s                87      0.976211   9 H  s         
    22     -0.727500   2 C  py               36     -0.727500   3 C  py        
    97     -0.685470  11 H  s               102      0.685470  12 H  s         
   112     -0.685470  14 H  s               117      0.685470  15 H  s         

 Vector   26  Occ=0.000000D+00  E= 2.623491D-01  Symmetry=a1
              MO Center=  5.4D-15,  1.1D-16, -3.0D-02, r^2= 1.4D+01
   Bfn.  Coefficient  Atom+Function         Bfn.  Coefficient  Atom+Function  
  ----- ------------  ---------------      ----- ------------  ---------------
    92      1.527579  10 H  s               107      1.527579  13 H  s         
    51     -0.805315   4 C  pz               65     -0.805315   5 C  pz        
    97     -0.682419  11 H  s               102     -0.682419  12 H  s         
   112     -0.682419  14 H  s               117     -0.682419  15 H  s         
    49      0.630752   4 C  px               63     -0.630752   5 C  px        

 Vector   27  Occ=0.000000D+00  E= 2.642966D-01  Symmetry=b1
              MO Center= -9.6D-16, -7.0D-17, -3.9D-01, r^2= 1.2D+01
   Bfn.  Coefficient  Atom+Function         Bfn.  Coefficient  Atom+Function  
  ----- ------------  ---------------      ----- ------------  ---------------
    97      0.935364  11 H  s               102      0.935364  12 H  s         
   112     -0.935364  14 H  s               117     -0.935364  15 H  s         
    92     -0.882780  10 H  s               107      0.882780  13 H  s         
    17      0.831146   2 C  s                31     -0.831146   3 C  s         
    45     -0.727945   4 C  s                59      0.727945   5 C  s         

 Vector   28  Occ=0.000000D+00  E= 2.721472D-01  Symmetry=a2
              MO Center=  1.1D-15, -2.4D-14, -5.2D-01, r^2= 1.0D+01
   Bfn.  Coefficient  Atom+Function         Bfn.  Coefficient  Atom+Function  
  ----- ------------  ---------------      ----- ------------  ---------------
    97      1.078412  11 H  s               102     -1.078412  12 H  s         
   112     -1.078412  14 H  s               117      1.078412  15 H  s         
    50      0.756836   4 C  py               64     -0.756836   5 C  py        
    72     -0.751490   6 H  s                77      0.751490   7 H  s         
    82     -0.751490   8 H  s                87      0.751490   9 H  s         

 Vector   29  Occ=0.000000D+00  E= 2.861978D-01  Symmetry=b1
              MO Center=  2.1D-15, -5.8D-15,  8.0D-01, r^2= 1.2D+01
   Bfn.  Coefficient  Atom+Function         Bfn.  Coefficient  Atom+Function  
  ----- ------------  ---------------      ----- ------------  ---------------
    17      1.338517   2 C  s                31     -1.338517   3 C  s         
    92      1.254395  10 H  s               107     -1.254395  13 H  s         
    72     -0.902040   6 H  s                77     -0.902040   7 H  s         
    82      0.902040   8 H  s                87      0.902040   9 H  s         
    45     -0.773245   4 C  s                59      0.773245   5 C  s         

 Vector   30  Occ=0.000000D+00  E= 2.912593D-01  Symmetry=b2
              MO Center=  6.3D-16, -4.9D-16, -4.0D-01, r^2= 1.0D+01
   Bfn.  Coefficient  Atom+Function         Bfn.  Coefficient  Atom+Function  
  ----- ------------  ---------------      ----- ------------  ---------------
    97      1.134578  11 H  s               102     -1.134578  12 H  s         
   112      1.134578  14 H  s               117     -1.134578  15 H  s         
    50      0.996807   4 C  py               64      0.996807   5 C  py        
    72      0.765458   6 H  s                77     -0.765458   7 H  s         
    82     -0.765458   8 H  s                87      0.765458   9 H  s         

 Vector   31  Occ=0.000000D+00  E= 3.016342D-01  Symmetry=a2
              MO Center= -2.5D-16,  6.5D-16,  5.8D-01, r^2= 8.6D+00
   Bfn.  Coefficient  Atom+Function         Bfn.  Coefficient  Atom+Function  
  ----- ------------  ---------------      ----- ------------  ---------------
    72      1.252271   6 H  s                77     -1.252271   7 H  s         
    82      1.252271   8 H  s                87     -1.252271   9 H  s         
    22     -1.046953   2 C  py               36      1.046953   3 C  py        
    50      0.777072   4 C  py               64     -0.777072   5 C  py        
    97      0.770398  11 H  s               102     -0.770398  12 H  s         

 Vector   32  Occ=0.000000D+00  E= 3.224714D-01  Symmetry=a1
              MO Center=  9.4D-13,  8.9D-16,  5.2D-01, r^2= 4.2D+00
   Bfn.  Coefficient  Atom+Function         Bfn.  Coefficient  Atom+Function  
  ----- ------------  ---------------      ----- ------------  ---------------
     3      1.289043   1 O  s                21     -0.783214   2 C  px        
    35      0.783214   3 C  px                9      0.468165   1 O  pz        
    17     -0.446004   2 C  s                31     -0.446004   3 C  s         
    23      0.334009   2 C  pz               37      0.334009   3 C  pz        
    51     -0.305352   4 C  pz               65     -0.305352   5 C  pz        

 Vector   33  Occ=0.000000D+00  E= 3.686241D-01  Symmetry=a1
              MO Center=  1.1D-13,  1.7D-16,  1.2D-02, r^2= 7.0D+00
   Bfn.  Coefficient  Atom+Function         Bfn.  Coefficient  Atom+Function  
  ----- ------------  ---------------      ----- ------------  ---------------
    49     -1.218669   4 C  px               63      1.218669   5 C  px        
    17      1.172263   2 C  s                31      1.172263   3 C  s         
    23     -1.043084   2 C  pz               37     -1.043084   3 C  pz        
    45     -0.905149   4 C  s                59     -0.905149   5 C  s         
    21     -0.768743   2 C  px               35      0.768743   3 C  px        

 Vector   34  Occ=0.000000D+00  E= 4.216516D-01  Symmetry=b1
              MO Center=  1.9D-14,  2.6D-16, -8.7D-03, r^2= 6.9D+00
   Bfn.  Coefficient  Atom+Function         Bfn.  Coefficient  Atom+Function  
  ----- ------------  ---------------      ----- ------------  ---------------
    21      1.705462   2 C  px               35      1.705462   3 C  px        
    51      1.003879   4 C  pz               65     -1.003879   5 C  pz        
    45      0.935262   4 C  s                59     -0.935262   5 C  s         
    49      0.899900   4 C  px               63      0.899900   5 C  px        
    17     -0.645909   2 C  s                31      0.645909   3 C  s         

 Vector   35  Occ=0.000000D+00  E= 4.295576D-01  Symmetry=b1
              MO Center= -1.4D-14,  3.0D-16,  8.5D-02, r^2= 6.9D+00
   Bfn.  Coefficient  Atom+Function         Bfn.  Coefficient  Atom+Function  
  ----- ------------  ---------------      ----- ------------  ---------------
    23      1.557012   2 C  pz               37     -1.557012   3 C  pz        
    17     -1.338244   2 C  s                31      1.338244   3 C  s         
    49      1.185241   4 C  px               63      1.185241   5 C  px        
     7     -0.961259   1 O  px               45      0.944694   4 C  s         
    59     -0.944694   5 C  s                72     -0.485615   6 H  s         

 Vector   36  Occ=0.000000D+00  E= 5.929249D-01  Symmetry=a1
              MO Center= -1.8D-14,  6.7D-16,  6.8D-02, r^2= 7.4D+00
   Bfn.  Coefficient  Atom+Function         Bfn.  Coefficient  Atom+Function  
  ----- ------------  ---------------      ----- ------------  ---------------
    51      0.755742   4 C  pz               65      0.755742   5 C  pz        
    23     -0.628055   2 C  pz               37     -0.628055   3 C  pz        
    17     -0.446391   2 C  s                31     -0.446391   3 C  s         
    49      0.290378   4 C  px               63     -0.290378   5 C  px        
    20      0.257543   2 C  pz               34      0.257543   3 C  pz        


 center of mass
 --------------
 x =   0.00000000 y =   0.00000000 z =  -0.01978265

 moments of inertia (a.u.)
 ------------------
          98.808029297618           0.000000000000           0.000000000000
           0.000000000000         904.079887390545           0.000000000000
           0.000000000000           0.000000000000         850.699933825053

  Mulliken analysis of the total density
  --------------------------------------

    Atom       Charge   Shell Charges
 -----------   ------   -------------------------------------------------------
    1 O    8     8.52   2.00  0.82  0.98  2.82  1.88  0.02
    2 C    6     5.83   2.00  0.66  0.36  1.94  0.73  0.12
    3 C    6     5.83   2.00  0.66  0.36  1.94  0.73  0.12
    4 C    6     6.05   2.00  0.65  0.39  2.03  0.92  0.06
    5 C    6     6.05   2.00  0.65  0.39  2.03  0.92  0.06
    6 H    1     0.99   0.77  0.18  0.03
    7 H    1     0.99   0.77  0.18  0.03
    8 H    1     0.99   0.77  0.18  0.03
    9 H    1     0.99   0.77  0.18  0.03
   10 H    1     0.97   0.76  0.19  0.03
   11 H    1     0.96   0.75  0.18  0.03
   12 H    1     0.96   0.75  0.18  0.03
   13 H    1     0.97   0.76  0.19  0.03
   14 H    1     0.96   0.75  0.18  0.03
   15 H    1     0.96   0.75  0.18  0.03

       Multipole analysis of the density wrt the origin
       ------------------------------------------------

     L   x y z        total         open         nuclear
     -   - - -        -----         ----         -------
     0   0 0 0     -0.000000      0.000000     42.000000

     1   1 0 0      0.000000      0.000000      0.000000
     1   0 1 0     -0.000000      0.000000      0.000000
     1   0 0 1      0.525644      0.000000      0.000000

     2   2 0 0    -22.550991      0.000000    507.536810
     2   1 1 0     -0.000000      0.000000      0.000000
     2   1 0 1     -0.000000      0.000000      0.000000
     2   0 2 0    -24.460241      0.000000     22.537681
     2   0 1 1      0.000000      0.000000      0.000000
     2   0 0 2    -25.027483      0.000000     55.342161


 Parallel integral file used     116 records with       0 large values

                              NWChem Gradients Module
                              -----------------------


                                   diethylether


  wavefunction    =   RHF     

  Using symmetry


                         RHF ENERGY GRADIENTS

    atom               coordinates                        gradient
                 x          y          z           x          y          z
   1 O       0.000000   0.000000  -0.478632    0.000000   0.000000  -0.021310
   2 C      -2.297070   0.000000   0.974608   -0.007991   0.000000   0.017754
   3 C       2.297070   0.000000   0.974608    0.007991   0.000000   0.017754
   4 C      -4.615691   0.000000  -0.778801   -0.014959   0.000000  -0.002350
   5 C       4.615691   0.000000  -0.778801    0.014959   0.000000  -0.002350
   6 H      -2.388929   1.678833   2.175207   -0.003832  -0.000258  -0.002299
   7 H      -2.388929  -1.678833   2.175207   -0.003832   0.000258  -0.002299
   8 H       2.388929  -1.678833   2.175207    0.003832   0.000258  -0.002299
   9 H       2.388929   1.678833   2.175207    0.003832  -0.000258  -0.002299
  10 H      -6.345034   0.000000   0.347239   -0.000651   0.000000  -0.001024
  11 H      -4.615636  -1.678077  -1.978983   -0.000169  -0.000811   0.000436
  12 H      -4.615636   1.678077  -1.978983   -0.000169   0.000811   0.000436
  13 H       6.345034   0.000000   0.347239    0.000651   0.000000  -0.001024
  14 H       4.615636  -1.678077  -1.978983    0.000169  -0.000811   0.000436
  15 H       4.615636   1.678077  -1.978983    0.000169   0.000811   0.000436

                 ----------------------------------------
                 |  Time  |  1-e(secs)   |  2-e(secs)   |
                 ----------------------------------------
                 |  CPU   |       0.00   |       0.69   |
                 ----------------------------------------
                 |  WALL  |       0.00   |       0.69   |
                 ----------------------------------------
  no constraints, skipping    0.0000000000000000     

@ Step       Energy      Delta E   Gmax     Grms     Xrms     Xmax   Walltime
@ ---- ---------------- -------- -------- -------- -------- -------- --------
@    0    -232.15776842  0.0D+00  0.03240  0.00652  0.00000  0.00000      1.6
                                                                    



                                Z-matrix (autoz)
                                -------- 

 Units are Angstrom for bonds and degrees for angles

      Type          Name      I     J     K     L     M      Value     Gradient
      ----------- --------  ----- ----- ----- ----- ----- ---------- ----------
    1 Stretch                  1     2                       1.43839    0.03240
    2 Stretch                  1     3                       1.43839    0.03240
    3 Stretch                  2     4                       1.53830    0.01423
    4 Stretch                  2     6                       1.09328   -0.00138
    5 Stretch                  2     7                       1.09328   -0.00138
    6 Stretch                  3     5                       1.53830    0.01423
    7 Stretch                  3     8                       1.09328   -0.00138
    8 Stretch                  3     9                       1.09328   -0.00138
    9 Stretch                  4    10                       1.09203   -0.00001
   10 Stretch                  4    11                       1.09174    0.00041
   11 Stretch                  4    12                       1.09174    0.00041
   12 Stretch                  5    13                       1.09203   -0.00001
   13 Stretch                  5    14                       1.09174    0.00041
   14 Stretch                  5    15                       1.09174    0.00041
   15 Bend                     1     2     4               110.58288    0.00566
   16 Bend                     1     2     6               110.38124   -0.00037
   17 Bend                     1     2     7               110.38124   -0.00037
   18 Bend                     1     3     5               110.58288    0.00566
   19 Bend                     1     3     8               110.38124   -0.00037
   20 Bend                     1     3     9               110.38124   -0.00037
   21 Bend                     2     1     3               115.36106    0.00583
   22 Bend                     2     4    10               109.83269    0.00094
   23 Bend                     2     4    11               110.54044   -0.00030
   24 Bend                     2     4    12               110.54044   -0.00030
   25 Bend                     3     5    13               109.83269    0.00094
   26 Bend                     3     5    14               110.54044   -0.00030
   27 Bend                     3     5    15               110.54044   -0.00030
   28 Bend                     4     2     6               108.36415   -0.00335
   29 Bend                     4     2     7               108.36415   -0.00335
   30 Bend                     5     3     8               108.36415   -0.00335
   31 Bend                     5     3     9               108.36415   -0.00335
   32 Bend                     6     2     7               108.70160    0.00162
   33 Bend                     8     3     9               108.70160    0.00162
   34 Bend                    10     4    11               108.50889   -0.00038
   35 Bend                    10     4    12               108.50889   -0.00038
   36 Bend                    11     4    12               108.85436    0.00041
   37 Bend                    13     5    14               108.50889   -0.00038
   38 Bend                    13     5    15               108.50889   -0.00038
   39 Bend                    14     5    15               108.85436    0.00041
   40 Torsion                  1     2     4    10         180.00000    0.00000
   41 Torsion                  1     2     4    11          60.29614    0.00006
   42 Torsion                  1     2     4    12         -60.29614   -0.00006
   43 Torsion                  1     3     5    13         180.00000    0.00000
   44 Torsion                  1     3     5    14         -60.29614   -0.00006
   45 Torsion                  1     3     5    15          60.29614    0.00006
   46 Torsion                  2     1     3     5         180.00000   -0.00000
   47 Torsion                  2     1     3     8          60.09693    0.00077
   48 Torsion                  2     1     3     9         -60.09693   -0.00077
   49 Torsion                  3     1     2     4         180.00000    0.00000
   50 Torsion                  3     1     2     6          60.09693    0.00077
   51 Torsion                  3     1     2     7         -60.09693   -0.00077
   52 Torsion                  6     2     4    10         -58.89303    0.00088
   53 Torsion                  6     2     4    11        -178.59689    0.00094
   54 Torsion                  6     2     4    12          60.81083    0.00082
   55 Torsion                  7     2     4    10          58.89303   -0.00088
   56 Torsion                  7     2     4    11         -60.81083   -0.00082
   57 Torsion                  7     2     4    12         178.59689   -0.00094
   58 Torsion                  8     3     5    13         -58.89303    0.00088
   59 Torsion                  8     3     5    14          60.81083    0.00082
   60 Torsion                  8     3     5    15        -178.59689    0.00094
   61 Torsion                  9     3     5    13          58.89303   -0.00088
   62 Torsion                  9     3     5    14         178.59689   -0.00094
   63 Torsion                  9     3     5    15         -60.81083   -0.00082

  no constraints, skipping    0.0000000000000000     
  no constraints, skipping    0.0000000000000000     
  no constraints, skipping    0.0000000000000000     
  no constraints, skipping    0.0000000000000000     
  no constraints, skipping    0.0000000000000000     
  no constraints, skipping    0.0000000000000000     
  no constraints, skipping    0.0000000000000000     
  no constraints, skipping    0.0000000000000000     
                                 NWChem SCF Module
                                 -----------------


                                   diethylether



  ao basis        = "ao basis"
  functions       =   120
  atoms           =    15
  closed shells   =    21
  open shells     =     0
  charge          =   0.00
  wavefunction    = RHF 
  input vectors   = ./molecule.movecs
  output vectors  = ./molecule.movecs
  use symmetry    = T
  symmetry adapt  = T


 Summary of "ao basis" -> "ao basis" (spherical)
 ------------------------------------------------------------------------------
       Tag                 Description            Shells   Functions and Types
 ---------------- ------------------------------  ------  ---------------------
 O                          cc-pVDZ                  6       14   3s2p1d
 C                          cc-pVDZ                  6       14   3s2p1d
 H                          cc-pVDZ                  3        5   2s1p


      Symmetry analysis of basis
      --------------------------

        a1         41
        a2         20
        b1         37
        b2         22


 Forming initial guess at       1.6s


 Loading old vectors from job with title :

diethylether


      Symmetry analysis of molecular orbitals - initial
      -------------------------------------------------

  Numbering of irreducible representations: 

     1 a1          2 a2          3 b1          4 b2      

  Orbital symmetries:

     1 a1          2 b1          3 a1          4 b1          5 a1      
     6 a1          7 b1          8 a1          9 b1         10 a1      
    11 b2         12 b1         13 a2         14 a1         15 a1      
    16 b2         17 b1         18 a2         19 b1         20 a1      
    21 b2         22 a1         23 b1         24 a1         25 b2      
    26 a1         27 b1         28 a2         29 b1         30 b2      
    31 a2      


 Starting SCF solution at       1.6s



 ----------------------------------------------
         Quadratically convergent ROHF

 Convergence threshold     :          1.000E-04
 Maximum no. of iterations :           30
 Final Fock-matrix accuracy:          1.000E-07
 ----------------------------------------------

  avail0,avail1,avail0-avail1                337780               337780                    0
  avail0,avail1,avail0-avail1                337780               337780                    0
  avail0,avail1,avail0-avail1                337780               337796                  -16
  avail0,avail1,avail0-avail1                337780               337796                  -16

 Integral file          = ./molecule.aoints.0
 Record size in doubles =  65536        No. of integs per rec  =  43688
 Max. records in memory =     69        Max. records in file   =  10025
 No. of bits per label  =      8        No. of bits per value  =     64


 #quartets = 4.197D+05 #integrals = 5.182D+06 #direct =  0.0% #cached =100.0%


File balance: exchanges=     3  moved=    20  time=   0.0


              iter       energy          gnorm     gmax       time
             ----- ------------------- --------- --------- --------
                 1     -232.1587396372  1.80D-01  3.26D-02      2.0
                 2     -232.1614148698  1.19D-02  3.59D-03      2.0
                 3     -232.1614321993  6.32D-05  1.91D-05      2.1


       Final RHF  results 
       ------------------ 

         Total SCF energy =   -232.161432199255
      One-electron energy =   -694.480873714676
      Two-electron energy =    270.640815929368
 Nuclear repulsion energy =    191.678625586053

        Time for solution =      0.5s



       Symmetry analysis of molecular orbitals - final
       -----------------------------------------------

  Numbering of irreducible representations: 

     1 a1          2 a2          3 b1          4 b2      

  Orbital symmetries:

     1 a1          2 b1          3 a1          4 b1          5 a1      
     6 a1          7 b1          8 a1          9 b1         10 a1      
    11 b2         12 b1         13 a2         14 a1         15 a1      
    16 b2         17 b1         18 a2         19 b1         20 a1      
    21 b2         22 a1         23 b1         24 a1         25 b2      
    26 a1         27 b1         28 a2         29 b1         30 b2      
    31 a2      

             Final eigenvalues
             -----------------

              1      
    1  -20.5471
    2  -11.2719
    3  -11.2719
    4  -11.2166
    5  -11.2166
    6   -1.3875
    7   -1.0435
    8   -0.9797
    9   -0.8420
   10   -0.8272
   11   -0.6801
   12   -0.6681
   13   -0.6026
   14   -0.5988
   15   -0.5457
   16   -0.5281
   17   -0.5198
   18   -0.4850
   19   -0.4849
   20   -0.4688
   21   -0.4137
   22    0.1858
   23    0.2039
   24    0.2232
   25    0.2326
   26    0.2641
   27    0.2652
   28    0.2739
   29    0.2912
   30    0.2930
   31    0.3061

                       ROHF Final Molecular Orbital Analysis
                       -------------------------------------

 Vector    6  Occ=2.000000D+00  E=-1.387512D+00  Symmetry=a1
              MO Center=  1.6D-14,  5.8D-18, -2.9D-02, r^2= 6.8D-01
   Bfn.  Coefficient  Atom+Function         Bfn.  Coefficient  Atom+Function  
  ----- ------------  ---------------      ----- ------------  ---------------
     3      0.440597   1 O  s                 2      0.402230   1 O  s         

 Vector    7  Occ=2.000000D+00  E=-1.043502D+00  Symmetry=b1
              MO Center= -5.7D-16, -4.4D-17,  4.9D-02, r^2= 4.0D+00
   Bfn.  Coefficient  Atom+Function         Bfn.  Coefficient  Atom+Function  
  ----- ------------  ---------------      ----- ------------  ---------------
    16      0.217060   2 C  s                30     -0.217060   3 C  s         
    44      0.189245   4 C  s                58     -0.189245   5 C  s         
     4     -0.162516   1 O  px        

 Vector    8  Occ=2.000000D+00  E=-9.796779D-01  Symmetry=a1
              MO Center=  2.3D-16,  6.7D-18, -1.4D-01, r^2= 5.6D+00
   Bfn.  Coefficient  Atom+Function         Bfn.  Coefficient  Atom+Function  
  ----- ------------  ---------------      ----- ------------  ---------------
    44      0.233658   4 C  s                58      0.233658   5 C  s         
     3     -0.163434   1 O  s         

 Vector    9  Occ=2.000000D+00  E=-8.419904D-01  Symmetry=b1
              MO Center= -6.8D-17,  1.7D-19, -1.2D-01, r^2= 5.5D+00
   Bfn.  Coefficient  Atom+Function         Bfn.  Coefficient  Atom+Function  
  ----- ------------  ---------------      ----- ------------  ---------------
     4      0.201022   1 O  px               44      0.187111   4 C  s         
    58     -0.187111   5 C  s                16     -0.179385   2 C  s         
    30      0.179385   3 C  s         

 Vector   10  Occ=2.000000D+00  E=-8.272067D-01  Symmetry=a1
              MO Center=  6.0D-17, -5.0D-18,  3.7D-01, r^2= 3.7D+00
   Bfn.  Coefficient  Atom+Function         Bfn.  Coefficient  Atom+Function  
  ----- ------------  ---------------      ----- ------------  ---------------
     3      0.186734   1 O  s                16     -0.184502   2 C  s         
    30     -0.184502   3 C  s                 6     -0.157161   1 O  pz        
     2      0.151010   1 O  s                71     -0.150464   6 H  s         
    76     -0.150464   7 H  s                81     -0.150464   8 H  s         
    86     -0.150464   9 H  s         

 Vector   11  Occ=2.000000D+00  E=-6.801266D-01  Symmetry=b2
              MO Center= -7.5D-15,  2.9D-17,  3.0D-01, r^2= 2.6D+00
   Bfn.  Coefficient  Atom+Function         Bfn.  Coefficient  Atom+Function  
  ----- ------------  ---------------      ----- ------------  ---------------
     5      0.319283   1 O  py               19      0.239859   2 C  py        
    33      0.239859   3 C  py                8      0.208837   1 O  py        

 Vector   12  Occ=2.000000D+00  E=-6.681250D-01  Symmetry=b1
              MO Center= -9.8D-15, -1.2D-16,  3.3D-01, r^2= 3.1D+00
   Bfn.  Coefficient  Atom+Function         Bfn.  Coefficient  Atom+Function  
  ----- ------------  ---------------      ----- ------------  ---------------
     4      0.337514   1 O  px               20      0.227136   2 C  pz        
    34     -0.227136   3 C  pz                7      0.188886   1 O  px        

 Vector   13  Occ=2.000000D+00  E=-6.025545D-01  Symmetry=a2
              MO Center=  5.3D-17,  8.8D-18,  6.9D-02, r^2= 5.1D+00
   Bfn.  Coefficient  Atom+Function         Bfn.  Coefficient  Atom+Function  
  ----- ------------  ---------------      ----- ------------  ---------------
    19      0.228002   2 C  py               33     -0.228002   3 C  py        
    47      0.212471   4 C  py               61     -0.212471   5 C  py        
    71      0.152565   6 H  s                76     -0.152565   7 H  s         
    81      0.152565   8 H  s                86     -0.152565   9 H  s         

 Vector   14  Occ=2.000000D+00  E=-5.988169D-01  Symmetry=a1
              MO Center= -1.0D-17, -5.3D-19, -1.8D-01, r^2= 3.9D+00
   Bfn.  Coefficient  Atom+Function         Bfn.  Coefficient  Atom+Function  
  ----- ------------  ---------------      ----- ------------  ---------------
     6      0.346866   1 O  pz                9      0.235814   1 O  pz        
    18      0.222560   2 C  px               32     -0.222560   3 C  px        
    46     -0.185611   4 C  px               60      0.185611   5 C  px        

 Vector   15  Occ=2.000000D+00  E=-5.456665D-01  Symmetry=a1
              MO Center= -7.3D-15, -2.9D-17, -3.1D-01, r^2= 8.0D+00
   Bfn.  Coefficient  Atom+Function         Bfn.  Coefficient  Atom+Function  
  ----- ------------  ---------------      ----- ------------  ---------------
    91      0.261132  10 H  s               106      0.261132  13 H  s         
    48      0.224285   4 C  pz               62      0.224285   5 C  pz        
    46     -0.194892   4 C  px               60      0.194892   5 C  px        

 Vector   16  Occ=2.000000D+00  E=-5.280635D-01  Symmetry=b2
              MO Center= -1.7D-16, -3.2D-17, -6.2D-01, r^2= 6.0D+00
   Bfn.  Coefficient  Atom+Function         Bfn.  Coefficient  Atom+Function  
  ----- ------------  ---------------      ----- ------------  ---------------
    47      0.280421   4 C  py               61      0.280421   5 C  py        
     5     -0.224351   1 O  py               96     -0.210465  11 H  s         
   101      0.210465  12 H  s               111     -0.210465  14 H  s         
   116      0.210465  15 H  s                 8     -0.164966   1 O  py        

 Vector   17  Occ=2.000000D+00  E=-5.198155D-01  Symmetry=b1
              MO Center=  5.6D-16,  2.2D-17, -2.1D-01, r^2= 7.1D+00
   Bfn.  Coefficient  Atom+Function         Bfn.  Coefficient  Atom+Function  
  ----- ------------  ---------------      ----- ------------  ---------------
    48      0.249381   4 C  pz               62     -0.249381   5 C  pz        
    91      0.222436  10 H  s               106     -0.222436  13 H  s         
     4     -0.154425   1 O  px        

 Vector   18  Occ=2.000000D+00  E=-4.850282D-01  Symmetry=a2
              MO Center= -2.4D-15,  2.5D-16,  3.6D-02, r^2= 5.5D+00
   Bfn.  Coefficient  Atom+Function         Bfn.  Coefficient  Atom+Function  
  ----- ------------  ---------------      ----- ------------  ---------------
    19      0.225468   2 C  py               33     -0.225468   3 C  py        
    47     -0.214576   4 C  py               61      0.214576   5 C  py        
    71      0.178626   6 H  s                76     -0.178626   7 H  s         
    81      0.178626   8 H  s                86     -0.178626   9 H  s         
    96      0.175230  11 H  s               101     -0.175230  12 H  s         

 Vector   19  Occ=2.000000D+00  E=-4.848966D-01  Symmetry=b1
              MO Center=  4.4D-17,  1.5D-17,  3.6D-02, r^2= 4.9D+00
   Bfn.  Coefficient  Atom+Function         Bfn.  Coefficient  Atom+Function  
  ----- ------------  ---------------      ----- ------------  ---------------
    18      0.266407   2 C  px               32      0.266407   3 C  px        
    46     -0.262063   4 C  px               60     -0.262063   5 C  px        
     4     -0.197722   1 O  px        

 Vector   20  Occ=2.000000D+00  E=-4.688221D-01  Symmetry=a1
              MO Center= -5.4D-17,  1.6D-17,  7.0D-02, r^2= 2.9D+00
   Bfn.  Coefficient  Atom+Function         Bfn.  Coefficient  Atom+Function  
  ----- ------------  ---------------      ----- ------------  ---------------
     6      0.399951   1 O  pz                9      0.321826   1 O  pz        
    20     -0.243497   2 C  pz               34     -0.243497   3 C  pz        
     3     -0.170386   1 O  s         

 Vector   21  Occ=2.000000D+00  E=-4.137013D-01  Symmetry=b2
              MO Center=  7.4D-16, -6.5D-17,  2.8D-01, r^2= 2.2D+00
   Bfn.  Coefficient  Atom+Function         Bfn.  Coefficient  Atom+Function  
  ----- ------------  ---------------      ----- ------------  ---------------
     5      0.502703   1 O  py                8      0.410530   1 O  py        
    71     -0.185160   6 H  s                76      0.185160   7 H  s         
    81      0.185160   8 H  s                86     -0.185160   9 H  s         
    19     -0.169656   2 C  py               33     -0.169656   3 C  py        

 Vector   22  Occ=0.000000D+00  E= 1.858181D-01  Symmetry=a1
              MO Center=  1.6D-16, -4.7D-17,  7.7D-01, r^2= 7.8D+00
   Bfn.  Coefficient  Atom+Function         Bfn.  Coefficient  Atom+Function  
  ----- ------------  ---------------      ----- ------------  ---------------
    17      1.072860   2 C  s                31      1.072860   3 C  s         
    45      0.807442   4 C  s                59      0.807442   5 C  s         
    72     -0.718177   6 H  s                77     -0.718177   7 H  s         
    82     -0.718177   8 H  s                87     -0.718177   9 H  s         
    23      0.486827   2 C  pz               37      0.486827   3 C  pz        

 Vector   23  Occ=0.000000D+00  E= 2.038886D-01  Symmetry=b1
              MO Center=  4.7D-14,  2.6D-14,  6.3D-02, r^2= 1.1D+01
   Bfn.  Coefficient  Atom+Function         Bfn.  Coefficient  Atom+Function  
  ----- ------------  ---------------      ----- ------------  ---------------
    45      1.300030   4 C  s                59     -1.300030   5 C  s         
    92     -0.797517  10 H  s               107      0.797517  13 H  s         
    17      0.749808   2 C  s                31     -0.749808   3 C  s         
    97     -0.509065  11 H  s               102     -0.509065  12 H  s         
   112      0.509065  14 H  s               117      0.509065  15 H  s         

 Vector   24  Occ=0.000000D+00  E= 2.231981D-01  Symmetry=a1
              MO Center= -6.9D-14,  5.5D-17, -2.8D-01, r^2= 1.1D+01
   Bfn.  Coefficient  Atom+Function         Bfn.  Coefficient  Atom+Function  
  ----- ------------  ---------------      ----- ------------  ---------------
    45      1.479037   4 C  s                59      1.479037   5 C  s         
    17     -0.869043   2 C  s                31     -0.869043   3 C  s         
    97     -0.749791  11 H  s               102     -0.749791  12 H  s         
   112     -0.749791  14 H  s               117     -0.749791  15 H  s         
    72      0.524500   6 H  s                77      0.524500   7 H  s         

 Vector   25  Occ=0.000000D+00  E= 2.325587D-01  Symmetry=b2
              MO Center= -2.3D-15, -6.8D-16,  4.7D-01, r^2= 8.2D+00
   Bfn.  Coefficient  Atom+Function         Bfn.  Coefficient  Atom+Function  
  ----- ------------  ---------------      ----- ------------  ---------------
    72      0.927719   6 H  s                77     -0.927719   7 H  s         
    82     -0.927719   8 H  s                87      0.927719   9 H  s         
    97     -0.721657  11 H  s               102      0.721657  12 H  s         
   112     -0.721657  14 H  s               117      0.721657  15 H  s         
    22     -0.698843   2 C  py               36     -0.698843   3 C  py        

 Vector   26  Occ=0.000000D+00  E= 2.641345D-01  Symmetry=a1
              MO Center= -1.8D-14,  1.7D-16,  3.8D-02, r^2= 1.4D+01
   Bfn.  Coefficient  Atom+Function         Bfn.  Coefficient  Atom+Function  
  ----- ------------  ---------------      ----- ------------  ---------------
    92      1.586448  10 H  s               107      1.586448  13 H  s         
    51     -0.784720   4 C  pz               65     -0.784720   5 C  pz        
    49      0.696771   4 C  px               63     -0.696771   5 C  px        
    97     -0.645776  11 H  s               102     -0.645776  12 H  s         
   112     -0.645776  14 H  s               117     -0.645776  15 H  s         

 Vector   27  Occ=0.000000D+00  E= 2.651895D-01  Symmetry=b1
              MO Center= -4.9D-14, -6.3D-17, -4.2D-01, r^2= 1.1D+01
   Bfn.  Coefficient  Atom+Function         Bfn.  Coefficient  Atom+Function  
  ----- ------------  ---------------      ----- ------------  ---------------
    97      0.940263  11 H  s               102      0.940263  12 H  s         
   112     -0.940263  14 H  s               117     -0.940263  15 H  s         
    92     -0.894512  10 H  s               107      0.894512  13 H  s         
    17      0.829079   2 C  s                31     -0.829079   3 C  s         
    45     -0.724514   4 C  s                59      0.724514   5 C  s         

 Vector   28  Occ=0.000000D+00  E= 2.738767D-01  Symmetry=a2
              MO Center= -1.3D-15, -2.8D-14, -5.3D-01, r^2= 9.8D+00
   Bfn.  Coefficient  Atom+Function         Bfn.  Coefficient  Atom+Function  
  ----- ------------  ---------------      ----- ------------  ---------------
    97      1.079256  11 H  s               102     -1.079256  12 H  s         
   112     -1.079256  14 H  s               117      1.079256  15 H  s         
    72     -0.764634   6 H  s                77      0.764634   7 H  s         
    82     -0.764634   8 H  s                87      0.764634   9 H  s         
    50      0.750810   4 C  py               64     -0.750810   5 C  py        

 Vector   29  Occ=0.000000D+00  E= 2.911536D-01  Symmetry=b1
              MO Center= -8.5D-16,  3.7D-17,  8.2D-01, r^2= 1.1D+01
   Bfn.  Coefficient  Atom+Function         Bfn.  Coefficient  Atom+Function  
  ----- ------------  ---------------      ----- ------------  ---------------
    17      1.384811   2 C  s                31     -1.384811   3 C  s         
    92      1.241748  10 H  s               107     -1.241748  13 H  s         
    72     -0.950959   6 H  s                77     -0.950959   7 H  s         
    82      0.950959   8 H  s                87      0.950959   9 H  s         
    45     -0.756073   4 C  s                59      0.756073   5 C  s         

 Vector   30  Occ=0.000000D+00  E= 2.929653D-01  Symmetry=b2
              MO Center= -1.6D-15,  2.6D-16, -3.0D-01, r^2= 9.7D+00
   Bfn.  Coefficient  Atom+Function         Bfn.  Coefficient  Atom+Function  
  ----- ------------  ---------------      ----- ------------  ---------------
    97      1.114839  11 H  s               102     -1.114839  12 H  s         
   112      1.114839  14 H  s               117     -1.114839  15 H  s         
    50      0.997103   4 C  py               64      0.997103   5 C  py        
    22     -0.809688   2 C  py               36     -0.809688   3 C  py        
    72      0.805604   6 H  s                77     -0.805604   7 H  s         

 Vector   31  Occ=0.000000D+00  E= 3.060972D-01  Symmetry=a2
              MO Center= -2.0D-16,  2.1D-16,  6.0D-01, r^2= 8.4D+00
   Bfn.  Coefficient  Atom+Function         Bfn.  Coefficient  Atom+Function  
  ----- ------------  ---------------      ----- ------------  ---------------
    72      1.299612   6 H  s                77     -1.299612   7 H  s         
    82      1.299612   8 H  s                87     -1.299612   9 H  s         
    22     -1.075903   2 C  py               36      1.075903   3 C  py        
    50      0.799987   4 C  py               64     -0.799987   5 C  py        
    97      0.778761  11 H  s               102     -0.778761  12 H  s         

 Vector   32  Occ=0.000000D+00  E= 3.361935D-01  Symmetry=a1
              MO Center=  1.3D-14, -1.0D-17,  5.6D-01, r^2= 4.2D+00
   Bfn.  Coefficient  Atom+Function         Bfn.  Coefficient  Atom+Function  
  ----- ------------  ---------------      ----- ------------  ---------------
     3      1.271043   1 O  s                21     -0.990377   2 C  px        
    35      0.990377   3 C  px                9      0.488090   1 O  pz        
    51     -0.451537   4 C  pz               65     -0.451537   5 C  pz        
    45     -0.332989   4 C  s                59     -0.332989   5 C  s         
    72      0.225119   6 H  s                77      0.225119   7 H  s         

 Vector   33  Occ=0.000000D+00  E= 3.798950D-01  Symmetry=a1
              MO Center=  2.6D-14,  4.5D-17, -2.5D-02, r^2= 7.0D+00
   Bfn.  Coefficient  Atom+Function         Bfn.  Coefficient  Atom+Function  
  ----- ------------  ---------------      ----- ------------  ---------------
    17      1.490668   2 C  s                31      1.490668   3 C  s         
    49     -1.235552   4 C  px               63      1.235552   5 C  px        
    23     -1.181494   2 C  pz               37     -1.181494   3 C  pz        
    45     -0.998131   4 C  s                59     -0.998131   5 C  s         
     3     -0.786594   1 O  s                51     -0.754154   4 C  pz        

 Vector   34  Occ=0.000000D+00  E= 4.291633D-01  Symmetry=b1
              MO Center= -7.4D-13, -4.8D-16, -1.3D-01, r^2= 7.4D+00
[...]
   20 Bend                     1     3     9               110.14473   -0.00000
   21 Bend                     2     1     3               114.73339    0.00000
   22 Bend                     2     4    10               110.51004   -0.00000
   23 Bend                     2     4    11               110.40379   -0.00000
   24 Bend                     2     4    12               110.40379   -0.00000
   25 Bend                     3     5    13               110.51004   -0.00000
   26 Bend                     3     5    14               110.40379   -0.00000
   27 Bend                     3     5    15               110.40379   -0.00000
   28 Bend                     4     2     6               110.33741   -0.00000
   29 Bend                     4     2     7               110.33741   -0.00000
   30 Bend                     5     3     8               110.33741   -0.00000
   31 Bend                     5     3     9               110.33741   -0.00000
   32 Bend                     6     2     7               107.10509   -0.00000
   33 Bend                     8     3     9               107.10509   -0.00000
   34 Bend                    10     4    11               108.61590    0.00000
   35 Bend                    10     4    12               108.61590    0.00000
   36 Bend                    11     4    12               108.22587    0.00000
   37 Bend                    13     5    14               108.61590    0.00000
   38 Bend                    13     5    15               108.61590    0.00000
   39 Bend                    14     5    15               108.22587    0.00000
   40 Torsion                  1     2     4    10         180.00000    0.00000
   41 Torsion                  1     2     4    11          59.81516    0.00000
   42 Torsion                  1     2     4    12         -59.81516   -0.00000
   43 Torsion                  1     3     5    13         180.00000   -0.00000
   44 Torsion                  1     3     5    14         -59.81516   -0.00000
   45 Torsion                  1     3     5    15          59.81516    0.00000
   46 Torsion                  2     1     3     5         180.00000    0.00000
   47 Torsion                  2     1     3     8          58.96108   -0.00000
   48 Torsion                  2     1     3     9         -58.96108    0.00000
   49 Torsion                  3     1     2     4         180.00000    0.00000
   50 Torsion                  3     1     2     6          58.96108   -0.00000
   51 Torsion                  3     1     2     7         -58.96108    0.00000
   52 Torsion                  6     2     4    10         -59.07942    0.00000
   53 Torsion                  6     2     4    11        -179.26426    0.00000
   54 Torsion                  6     2     4    12          61.10542    0.00000
   55 Torsion                  7     2     4    10          59.07942   -0.00000
   56 Torsion                  7     2     4    11         -61.10542   -0.00000
   57 Torsion                  7     2     4    12         179.26426   -0.00000
   58 Torsion                  8     3     5    13         -59.07942    0.00000
   59 Torsion                  8     3     5    14          61.10542    0.00000
   60 Torsion                  8     3     5    15        -179.26426    0.00000
   61 Torsion                  9     3     5    13          59.07942   -0.00000
   62 Torsion                  9     3     5    14         179.26426   -0.00000
   63 Torsion                  9     3     5    15         -61.10542   -0.00000



                         Geometry "geometry" -> "geometry"
                         ---------------------------------

 Output coordinates in angstroms (scale by  1.889725989 to convert to a.u.)

  No.       Tag          Charge          X              Y              Z
 ---- ---------------- ---------- -------------- -------------- --------------
    1 O                    8.0000     0.00000000     0.00000000    -0.22784882
    2 C                    6.0000    -1.17572811     0.00000000     0.52502392
    3 C                    6.0000     1.17572811     0.00000000     0.52502392
    4 C                    6.0000    -2.35878452     0.00000000    -0.41940646
    5 C                    6.0000     2.35878452     0.00000000    -0.41940646
    6 H                    1.0000    -1.20754240     0.88298938     1.17637288
    7 H                    1.0000    -1.20754240    -0.88298938     1.17637288
    8 H                    1.0000     1.20754240    -0.88298938     1.17637288
    9 H                    1.0000     1.20754240     0.88298938     1.17637288
   10 H                    1.0000    -3.29612084     0.00000000     0.14134896
   11 H                    1.0000    -2.33527916    -0.88415659    -1.05869291
   12 H                    1.0000    -2.33527916     0.88415659    -1.05869291
   13 H                    1.0000     3.29612084     0.00000000     0.14134896
   14 H                    1.0000     2.33527916    -0.88415659    -1.05869291
   15 H                    1.0000     2.33527916     0.88415659    -1.05869291

      Atomic Mass 
      ----------- 

      O                 15.994910
      C                 12.000000
      H                  1.007825


 Effective nuclear repulsion energy (a.u.)     190.8378040217

            Nuclear Dipole moment (a.u.) 
            ----------------------------
        X                 Y               Z
 ---------------- ---------------- ----------------
     0.0000000000     0.0000000000     0.3742350997

      Symmetry information
      --------------------

 Group name             C2v       
 Group number             16
 Group order               4
 No. of unique centers     6

      Symmetry unique atoms

     1    2    4    6   10   11


                Final and change from initial internal coordinates
                --------------------------------------------------



                                Z-matrix (autoz)
                                -------- 

 Units are Angstrom for bonds and degrees for angles

      Type          Name      I     J     K     L     M      Value       Change
      ----------- --------  ----- ----- ----- ----- ----- ---------- ----------
    1 Stretch                  1     2                       1.39612   -0.04227
    2 Stretch                  1     3                       1.39612   -0.04227
    3 Stretch                  2     4                       1.51379   -0.02451
    4 Stretch                  2     6                       1.09770    0.00442
    5 Stretch                  2     7                       1.09770    0.00442
    6 Stretch                  3     5                       1.51379   -0.02451
    7 Stretch                  3     8                       1.09770    0.00442
    8 Stretch                  3     9                       1.09770    0.00442
    9 Stretch                  4    10                       1.09227    0.00024
   10 Stretch                  4    11                       1.09132   -0.00043
   11 Stretch                  4    12                       1.09132   -0.00043
   12 Stretch                  5    13                       1.09227    0.00024
   13 Stretch                  5    14                       1.09132   -0.00043
   14 Stretch                  5    15                       1.09132   -0.00043
   15 Bend                     1     2     4               108.76644   -1.81644
   16 Bend                     1     2     6               110.14473   -0.23651
   17 Bend                     1     2     7               110.14473   -0.23651
   18 Bend                     1     3     5               108.76644   -1.81644
   19 Bend                     1     3     8               110.14473   -0.23651
   20 Bend                     1     3     9               110.14473   -0.23651
   21 Bend                     2     1     3               114.73339   -0.62766
   22 Bend                     2     4    10               110.51004    0.67734
   23 Bend                     2     4    11               110.40379   -0.13665
   24 Bend                     2     4    12               110.40379   -0.13665
   25 Bend                     3     5    13               110.51004    0.67734
   26 Bend                     3     5    14               110.40379   -0.13665
   27 Bend                     3     5    15               110.40379   -0.13665
   28 Bend                     4     2     6               110.33741    1.97326
   29 Bend                     4     2     7               110.33741    1.97326
   30 Bend                     5     3     8               110.33741    1.97326
   31 Bend                     5     3     9               110.33741    1.97326
   32 Bend                     6     2     7               107.10509   -1.59651
   33 Bend                     8     3     9               107.10509   -1.59651
   34 Bend                    10     4    11               108.61590    0.10700
   35 Bend                    10     4    12               108.61590    0.10700
   36 Bend                    11     4    12               108.22587   -0.62848
   37 Bend                    13     5    14               108.61590    0.10700
   38 Bend                    13     5    15               108.61590    0.10700
   39 Bend                    14     5    15               108.22587   -0.62848
   40 Torsion                  1     2     4    10         180.00000    0.00000
   41 Torsion                  1     2     4    11          59.81516   -0.48098
   42 Torsion                  1     2     4    12         -59.81516    0.48098
   43 Torsion                  1     3     5    13         180.00000    0.00000
   44 Torsion                  1     3     5    14         -59.81516    0.48098
   45 Torsion                  1     3     5    15          59.81516   -0.48098
   46 Torsion                  2     1     3     5         180.00000    0.00000
   47 Torsion                  2     1     3     8          58.96108   -1.13585
   48 Torsion                  2     1     3     9         -58.96108    1.13585
   49 Torsion                  3     1     2     4         180.00000    0.00000
   50 Torsion                  3     1     2     6          58.96108   -1.13585
   51 Torsion                  3     1     2     7         -58.96108    1.13585
   52 Torsion                  6     2     4    10         -59.07942   -0.18639
   53 Torsion                  6     2     4    11        -179.26426   -0.66737
   54 Torsion                  6     2     4    12          61.10542    0.29458
   55 Torsion                  7     2     4    10          59.07942    0.18639
   56 Torsion                  7     2     4    11         -61.10542   -0.29458
   57 Torsion                  7     2     4    12         179.26426    0.66737
   58 Torsion                  8     3     5    13         -59.07942   -0.18639
   59 Torsion                  8     3     5    14          61.10542    0.29458
   60 Torsion                  8     3     5    15        -179.26426   -0.66737
   61 Torsion                  9     3     5    13          59.07942    0.18639
   62 Torsion                  9     3     5    14         179.26426    0.66737
   63 Torsion                  9     3     5    15         -61.10542   -0.29458

 ==============================================================================
                                internuclear distances
 ------------------------------------------------------------------------------
       center one      |      center two      | atomic units |  angstroms
 ------------------------------------------------------------------------------
    2 C                |   1 O                |     2.63829  |     1.39612
    3 C                |   1 O                |     2.63829  |     1.39612
    4 C                |   2 C                |     2.86066  |     1.51379
    5 C                |   3 C                |     2.86066  |     1.51379
    6 H                |   2 C                |     2.07435  |     1.09770
    7 H                |   2 C                |     2.07435  |     1.09770
    8 H                |   3 C                |     2.07435  |     1.09770
    9 H                |   3 C                |     2.07435  |     1.09770
   10 H                |   4 C                |     2.06408  |     1.09227
   11 H                |   4 C                |     2.06229  |     1.09132
   12 H                |   4 C                |     2.06229  |     1.09132
   13 H                |   5 C                |     2.06408  |     1.09227
   14 H                |   5 C                |     2.06229  |     1.09132
   15 H                |   5 C                |     2.06229  |     1.09132
 ------------------------------------------------------------------------------
                         number of included internuclear distances:         14
 ==============================================================================



 ==============================================================================
                                 internuclear angles
 ------------------------------------------------------------------------------
        center 1       |       center 2       |       center 3       |  degrees
 ------------------------------------------------------------------------------
    2 C                |   1 O                |   3 C                |   114.73
    1 O                |   2 C                |   4 C                |   108.77
    1 O                |   2 C                |   6 H                |   110.14
    1 O                |   2 C                |   7 H                |   110.14
    4 C                |   2 C                |   6 H                |   110.34
    4 C                |   2 C                |   7 H                |   110.34
    6 H                |   2 C                |   7 H                |   107.11
    1 O                |   3 C                |   5 C                |   108.77
    1 O                |   3 C                |   8 H                |   110.14
    1 O                |   3 C                |   9 H                |   110.14
    5 C                |   3 C                |   8 H                |   110.34
    5 C                |   3 C                |   9 H                |   110.34
    8 H                |   3 C                |   9 H                |   107.11
    2 C                |   4 C                |  10 H                |   110.51
    2 C                |   4 C                |  11 H                |   110.40
    2 C                |   4 C                |  12 H                |   110.40
   10 H                |   4 C                |  11 H                |   108.62
   10 H                |   4 C                |  12 H                |   108.62
   11 H                |   4 C                |  12 H                |   108.23
    3 C                |   5 C                |  13 H                |   110.51
    3 C                |   5 C                |  14 H                |   110.40
    3 C                |   5 C                |  15 H                |   110.40
   13 H                |   5 C                |  14 H                |   108.62
   13 H                |   5 C                |  15 H                |   108.62
   14 H                |   5 C                |  15 H                |   108.23
 ------------------------------------------------------------------------------
                            number of included internuclear angles:         25
 ==============================================================================




 Task  times  cpu:       11.4s     wall:       11.4s


                                NWChem Input Module
                                -------------------


 Summary of allocated global arrays
-----------------------------------
  No active global arrays


MA_summarize_allocated_blocks: starting scan ...
MA_summarize_allocated_blocks: scan completed: 0 heap blocks, 0 stack blocks
MA usage statistics:

	allocation statistics:
					      heap	     stack
					      ----	     -----
	current number of blocks	         0	         0
	maximum number of blocks	        20	        29
	current total bytes		         0	         0
	maximum total bytes		  36277176	  26258088
	maximum total K-bytes		     36278	     26259
	maximum total M-bytes		        37	        27


                                     CITATION
                                     --------
                Please cite the following reference when publishing
                           results obtained with NWChem:

          E. Apra, E. J. Bylaska, W. A. de Jong, N. Govind, K. Kowalski,
       T. P. Straatsma, M. Valiev, H. J. J. van Dam, Y. Alexeev, J. Anchell,
       V. Anisimov, F. W. Aquino, R. Atta-Fynn, J. Autschbach, N. P. Bauman,
     J. C. Becca, D. E. Bernholdt, K. Bhaskaran-Nair, S. Bogatko, P. Borowski,
         J. Boschen, J. Brabec, A. Bruner, E. Cauet, Y. Chen, G. N. Chuev,
      C. J. Cramer, J. Daily, M. J. O. Deegan, T. H. Dunning Jr., M. Dupuis,
   K. G. Dyall, G. I. Fann, S. A. Fischer, A. Fonari, H. Fruchtl, L. Gagliardi,
      J. Garza, N. Gawande, S. Ghosh, K. Glaesemann, A. W. Gotz, J. Hammond,
       V. Helms, E. D. Hermes, K. Hirao, S. Hirata, M. Jacquelin, L. Jensen,
   B. G. Johnson, H. Jonsson, R. A. Kendall, M. Klemm, R. Kobayashi, V. Konkov,
      S. Krishnamoorthy, M. Krishnan, Z. Lin, R. D. Lins, R. J. Littlefield,
      A. J. Logsdail, K. Lopata, W. Ma, A. V. Marenich, J. Martin del Campo,
   D. Mejia-Rodriguez, J. E. Moore, J. M. Mullin, T. Nakajima, D. R. Nascimento,
    J. A. Nichols, P. J. Nichols, J. Nieplocha, A. Otero-de-la-Roza, B. Palmer,
    A. Panyala, T. Pirojsirikul, B. Peng, R. Peverati, J. Pittner, L. Pollack,
   R. M. Richard, P. Sadayappan, G. C. Schatz, W. A. Shelton, D. W. Silverstein,
   D. M. A. Smith, T. A. Soares, D. Song, M. Swart, H. L. Taylor, G. S. Thomas,
            V. Tipparaju, D. G. Truhlar, K. Tsemekhman, T. Van Voorhis,
      A. Vazquez-Mayagoitia, P. Verma, O. Villa, A. Vishnu, K. D. Vogiatzis,
        D. Wang, J. H. Weare, M. J. Williamson, T. L. Windus, K. Wolinski,
        A. T. Wong, Q. Wu, C. Yang, Q. Yu, M. Zacharias, Z. Zhang, Y. Zhao,
                                and R. J. Harrison
                        "NWChem: Past, present, and future
                         J. Chem. Phys. 152, 184102 (2020)
                               doi:10.1063/5.0004997

                                      AUTHORS
                                      -------
  E. Apra, E. J. Bylaska, N. Govind, K. Kowalski, M. Valiev, D. Mejia-Rodriguez,
       A. Kunitsa, N. P. Bauman, A. Panyala, W. A. de Jong, T. P. Straatsma,
   H. J. J. van Dam, D. Wang, T. L. Windus, J. Hammond, J. Autschbach, A. Woods,
    K. Bhaskaran-Nair, J. Brabec, K. Lopata, S. A. Fischer, S. Krishnamoorthy,
     M. Jacquelin, W. Ma, M. Klemm, O. Villa, Y. Chen, V. Anisimov, F. Aquino,
     S. Hirata, M. T. Hackler, E. Hermes, L. Jensen, J. E. Moore, J. C. Becca,
      V. Konjkov, T. Risthaus, M. Malagoli, A. Marenich, A. Otero-de-la-Roza,
        J. Mullin, P. Nichols, R. Peverati, J. Pittner, Y. Zhao, P.-D. Fan,
        A. Fonari, M. J. Williamson, R. J. Harrison, J. R. Rehr, M. Dupuis,
     D. Silverstein, D. M. A. Smith, J. Nieplocha, V. Tipparaju, M. Krishnan,
     B. E. Van Kuiken, A. Vazquez-Mayagoitia, M. Swart, Q. Wu, T. Van Voorhis,
     A. A. Auer, M. Nooijen, L. D. Crosby, E. Brown, G. Cisneros, G. I. Fann,
   H. Fruchtl, J. Garza, K. Hirao, R. A. Kendall, J. A. Nichols, K. Tsemekhman,
    K. Wolinski, J. Anchell, D. E. Bernholdt, P. Borowski, T. Clark, D. Clerc,
   H. Dachsel, M. J. O. Deegan, K. Dyall, D. Elwood, E. Glendening, M. Gutowski,
   A. C. Hess, J. Jaffe, B. G. Johnson, J. Ju, R. Kobayashi, R. Kutteh, Z. Lin,
   R. Littlefield, X. Long, B. Meng, T. Nakajima, S. Niu, L. Pollack, M. Rosing,
   K. Glaesemann, G. Sandrone, M. Stave, H. Taylor, G. Thomas, J. H. van Lenthe,
                               A. T. Wong, Z. Zhang.

 Total times  cpu:       11.4s     wall:       11.4s
