 argument  1 = ../../diethyletherOptimized.txt



============================== echo of input deck ==============================
echo

start molecule

title "diethylether"
memory total 2 gb

charge 0
geometry units angstrom print xyz
 O     0.00000000     0.00000000    -0.22784882
 C    -1.17572811     0.00000000     0.52502392
 C     1.17572811     0.00000000     0.52502392
 C    -2.35878452     0.00000000    -0.41940646
 C     2.35878452     0.00000000    -0.41940646
 H    -1.20754240     0.88298938     1.17637288
 H    -1.20754240    -0.88298938     1.17637288
 H     1.20754240    -0.88298938     1.17637288
 H     1.20754240     0.88298938     1.17637288
 H    -3.29612084     0.00000000     0.14134896
 H    -2.33527916    -0.88415659    -1.05869291
 H    -2.33527916     0.88415659    -1.05869291
 H     3.29612084     0.00000000     0.14134896
 H     2.33527916    -0.88415659    -1.05869291
 H     2.33527916     0.88415659    -1.05869291

end

basis spherical
 * library 6-31G
end

task scf
================================================================================


                                         
                                         


             Northwest Computational Chemistry Package (NWChem) 7.2.2
             --------------------------------------------------------


                    Environmental Molecular Sciences Laboratory
                       Pacific Northwest National Laboratory
                                Richland, WA 99352

                              Copyright (c) 1994-2022
                       Pacific Northwest National Laboratory
                            Battelle Memorial Institute

             NWChem is an open-source computational chemistry package
                        distributed under the terms of the
                      Educational Community License (ECL) 2.0
             A copy of the license is included with this distribution
                              in the LICENSE.TXT file

                                  ACKNOWLEDGMENT
                                  --------------

            This software and its documentation were developed at the
            EMSL at Pacific Northwest National Laboratory, a multiprogram
            national laboratory, operated for the U.S. Department of Energy
            by Battelle under Contract Number DE-AC05-76RL01830. Support
            for this work was provided by the Department of Energy Office
            of Biological and Environmental Research, Office of Basic
            Energy Sciences, and the Office of Advanced Scientific Computing.


           Job information
           ---------------

    hostname        = Eliass-MacBook-Air.local
    program         = nwchem
    date            = Mon Feb 19 12:37:12 2024

    compiled        = Sun_Dec_10_10:51:21_2023
    source          = /private/tmp/nwchem-20231210-5888-3uvdjr/nwchem-7.2.2
    nwchem branch   = 7.2.2
    nwchem revision = 74936fb9
    ga revision     = 5.8.0
    use scalapack   = T
    input           = ../../diethyletherOptimized.txt
    prefix          = molecule.
    data base       = ./molecule.db
    status          = startup
    nproc           =        4
    time left       =     -1s



           Memory information
           ------------------

    heap     =   67108860 doubles =    512.0 Mbytes
    stack    =   67108865 doubles =    512.0 Mbytes
    global   =  134217728 doubles =   1024.0 Mbytes (distinct from heap & stack)
    total    =  268435453 doubles =   2048.0 Mbytes
    verify   = yes
    hardfail = no 


           Directory information
           ---------------------

  0 permanent = .
  0 scratch   = .




                                NWChem Input Module
                                -------------------


                                   diethylether
                                   ------------

 Scaling coordinates for geometry "geometry" by  1.889725989
 (inverse scale =  0.529177249)

 C2V symmetry detected

          ------
          auto-z
          ------
  no constraints, skipping    0.0000000000000000     
  no constraints, skipping    0.0000000000000000     


                             Geometry "geometry" -> ""
                             -------------------------

 Output coordinates in angstroms (scale by  1.889725989 to convert to a.u.)

  No.       Tag          Charge          X              Y              Z
 ---- ---------------- ---------- -------------- -------------- --------------
    1 O                    8.0000     0.00000000     0.00000000    -0.23256398
    2 C                    6.0000    -1.17572811     0.00000000     0.52030876
    3 C                    6.0000     1.17572811     0.00000000     0.52030876
    4 C                    6.0000    -2.35878452     0.00000000    -0.42412162
    5 C                    6.0000     2.35878452     0.00000000    -0.42412162
    6 H                    1.0000    -1.20754240     0.88298938     1.17165772
    7 H                    1.0000    -1.20754240    -0.88298938     1.17165772
    8 H                    1.0000     1.20754240    -0.88298938     1.17165772
    9 H                    1.0000     1.20754240     0.88298938     1.17165772
   10 H                    1.0000    -3.29612084     0.00000000     0.13663380
   11 H                    1.0000    -2.33527916    -0.88415659    -1.06340807
   12 H                    1.0000    -2.33527916     0.88415659    -1.06340807
   13 H                    1.0000     3.29612084     0.00000000     0.13663380
   14 H                    1.0000     2.33527916    -0.88415659    -1.06340807
   15 H                    1.0000     2.33527916     0.88415659    -1.06340807

      Atomic Mass 
      ----------- 

      O                 15.994910
      C                 12.000000
      H                  1.007825


 Effective nuclear repulsion energy (a.u.)     190.8378039837

            Nuclear Dipole moment (a.u.) 
            ----------------------------
        X                 Y               Z
 ---------------- ---------------- ----------------
     0.0000000000     0.0000000000    -0.0000000000

      Symmetry information
      --------------------

 Group name             C2v       
 Group number             16
 Group order               4
 No. of unique centers     6

      Symmetry unique atoms

     1    2    4    6   10   11



                                Z-matrix (autoz)
                                -------- 

 Units are Angstrom for bonds and degrees for angles

      Type          Name      I     J     K     L     M      Value
      ----------- --------  ----- ----- ----- ----- ----- ----------
    1 Stretch                  1     2                       1.39612
    2 Stretch                  1     3                       1.39612
    3 Stretch                  2     4                       1.51379
    4 Stretch                  2     6                       1.09770
    5 Stretch                  2     7                       1.09770
    6 Stretch                  3     5                       1.51379
    7 Stretch                  3     8                       1.09770
    8 Stretch                  3     9                       1.09770
    9 Stretch                  4    10                       1.09227
   10 Stretch                  4    11                       1.09132
   11 Stretch                  4    12                       1.09132
   12 Stretch                  5    13                       1.09227
   13 Stretch                  5    14                       1.09132
   14 Stretch                  5    15                       1.09132
   15 Bend                     1     2     4               108.76644
   16 Bend                     1     2     6               110.14473
   17 Bend                     1     2     7               110.14473
   18 Bend                     1     3     5               108.76644
   19 Bend                     1     3     8               110.14473
   20 Bend                     1     3     9               110.14473
   21 Bend                     2     1     3               114.73339
   22 Bend                     2     4    10               110.51004
   23 Bend                     2     4    11               110.40379
   24 Bend                     2     4    12               110.40379
   25 Bend                     3     5    13               110.51004
   26 Bend                     3     5    14               110.40379
   27 Bend                     3     5    15               110.40379
   28 Bend                     4     2     6               110.33741
   29 Bend                     4     2     7               110.33741
   30 Bend                     5     3     8               110.33741
   31 Bend                     5     3     9               110.33741
   32 Bend                     6     2     7               107.10509
   33 Bend                     8     3     9               107.10509
   34 Bend                    10     4    11               108.61590
   35 Bend                    10     4    12               108.61590
   36 Bend                    11     4    12               108.22587
   37 Bend                    13     5    14               108.61590
   38 Bend                    13     5    15               108.61590
   39 Bend                    14     5    15               108.22587
   40 Torsion                  1     2     4    10         180.00000
   41 Torsion                  1     2     4    11          59.81516
   42 Torsion                  1     2     4    12         -59.81516
   43 Torsion                  1     3     5    13         180.00000
   44 Torsion                  1     3     5    14         -59.81516
   45 Torsion                  1     3     5    15          59.81516
   46 Torsion                  2     1     3     5         180.00000
   47 Torsion                  2     1     3     8          58.96108
   48 Torsion                  2     1     3     9         -58.96108
   49 Torsion                  3     1     2     4         180.00000
   50 Torsion                  3     1     2     6          58.96108
   51 Torsion                  3     1     2     7         -58.96108
   52 Torsion                  6     2     4    10         -59.07942
   53 Torsion                  6     2     4    11        -179.26426
   54 Torsion                  6     2     4    12          61.10542
   55 Torsion                  7     2     4    10          59.07942
   56 Torsion                  7     2     4    11         -61.10542
   57 Torsion                  7     2     4    12         179.26426
   58 Torsion                  8     3     5    13         -59.07942
   59 Torsion                  8     3     5    14          61.10542
   60 Torsion                  8     3     5    15        -179.26426
   61 Torsion                  9     3     5    13          59.07942
   62 Torsion                  9     3     5    14         179.26426
   63 Torsion                  9     3     5    15         -61.10542


            XYZ format geometry
            -------------------
    15
 geometry
 O                     0.00000000     0.00000000    -0.23256398
 C                    -1.17572811     0.00000000     0.52030876
 C                     1.17572811     0.00000000     0.52030876
 C                    -2.35878452     0.00000000    -0.42412162
 C                     2.35878452     0.00000000    -0.42412162
 H                    -1.20754240     0.88298938     1.17165772
 H                    -1.20754240    -0.88298938     1.17165772
 H                     1.20754240    -0.88298938     1.17165772
 H                     1.20754240     0.88298938     1.17165772
 H                    -3.29612084     0.00000000     0.13663380
 H                    -2.33527916    -0.88415659    -1.06340807
 H                    -2.33527916     0.88415659    -1.06340807
 H                     3.29612084     0.00000000     0.13663380
 H                     2.33527916    -0.88415659    -1.06340807
 H                     2.33527916     0.88415659    -1.06340807

 ==============================================================================
                                internuclear distances
 ------------------------------------------------------------------------------
       center one      |      center two      | atomic units |  angstroms
 ------------------------------------------------------------------------------
    2 C                |   1 O                |     2.63829  |     1.39612
    3 C                |   1 O                |     2.63829  |     1.39612
    4 C                |   2 C                |     2.86066  |     1.51379
    5 C                |   3 C                |     2.86066  |     1.51379
    6 H                |   2 C                |     2.07435  |     1.09770
    7 H                |   2 C                |     2.07435  |     1.09770
    8 H                |   3 C                |     2.07435  |     1.09770
    9 H                |   3 C                |     2.07435  |     1.09770
   10 H                |   4 C                |     2.06408  |     1.09227
   11 H                |   4 C                |     2.06229  |     1.09132
   12 H                |   4 C                |     2.06229  |     1.09132
   13 H                |   5 C                |     2.06408  |     1.09227
   14 H                |   5 C                |     2.06229  |     1.09132
   15 H                |   5 C                |     2.06229  |     1.09132
 ------------------------------------------------------------------------------
                         number of included internuclear distances:         14
 ==============================================================================



 ==============================================================================
                                 internuclear angles
 ------------------------------------------------------------------------------
        center 1       |       center 2       |       center 3       |  degrees
 ------------------------------------------------------------------------------
    2 C                |   1 O                |   3 C                |   114.73
    1 O                |   2 C                |   4 C                |   108.77
    1 O                |   2 C                |   6 H                |   110.14
    1 O                |   2 C                |   7 H                |   110.14
    4 C                |   2 C                |   6 H                |   110.34
    4 C                |   2 C                |   7 H                |   110.34
    6 H                |   2 C                |   7 H                |   107.11
    1 O                |   3 C                |   5 C                |   108.77
    1 O                |   3 C                |   8 H                |   110.14
    1 O                |   3 C                |   9 H                |   110.14
    5 C                |   3 C                |   8 H                |   110.34
    5 C                |   3 C                |   9 H                |   110.34
    8 H                |   3 C                |   9 H                |   107.11
    2 C                |   4 C                |  10 H                |   110.51
    2 C                |   4 C                |  11 H                |   110.40
    2 C                |   4 C                |  12 H                |   110.40
   10 H                |   4 C                |  11 H                |   108.62
   10 H                |   4 C                |  12 H                |   108.62
   11 H                |   4 C                |  12 H                |   108.23
    3 C                |   5 C                |  13 H                |   110.51
    3 C                |   5 C                |  14 H                |   110.40
    3 C                |   5 C                |  15 H                |   110.40
   13 H                |   5 C                |  14 H                |   108.62
   13 H                |   5 C                |  15 H                |   108.62
   14 H                |   5 C                |  15 H                |   108.23
 ------------------------------------------------------------------------------
                            number of included internuclear angles:         25
 ==============================================================================



  library name resolved from: .nwchemrc
  library file name is: </opt/homebrew/Cellar/nwchem/7.2.2/share/nwchem/libraries/>
  


 Summary of "ao basis" -> "" (spherical)
 ------------------------------------------------------------------------------
       Tag                 Description            Shells   Functions and Types
 ---------------- ------------------------------  ------  ---------------------
 *                           6-31G                    on all atoms 


                      Basis "ao basis" -> "ao basis" (spherical)
                      -----
  O (Oxygen)
  ----------
            Exponent  Coefficients 
       -------------- ---------------------------------------------------------
  1 S  5.48467170E+03  0.001831
  1 S  8.25234950E+02  0.013950
  1 S  1.88046960E+02  0.068445
  1 S  5.29645000E+01  0.232714
  1 S  1.68975700E+01  0.470193
  1 S  5.79963530E+00  0.358521

  2 S  1.55396160E+01 -0.110778
  2 S  3.59993360E+00 -0.148026
  2 S  1.01376180E+00  1.130767

  3 P  1.55396160E+01  0.070874
  3 P  3.59993360E+00  0.339753
  3 P  1.01376180E+00  0.727159

  4 S  2.70005800E-01  1.000000

  5 P  2.70005800E-01  1.000000

  C (Carbon)
  ----------
            Exponent  Coefficients 
       -------------- ---------------------------------------------------------
  1 S  3.04752490E+03  0.001835
  1 S  4.57369510E+02  0.014037
  1 S  1.03948690E+02  0.068843
  1 S  2.92101550E+01  0.232184
  1 S  9.28666300E+00  0.467941
  1 S  3.16392700E+00  0.362312

  2 S  7.86827240E+00 -0.119332
  2 S  1.88128850E+00 -0.160854
  2 S  5.44249300E-01  1.143456

  3 P  7.86827240E+00  0.068999
  3 P  1.88128850E+00  0.316424
  3 P  5.44249300E-01  0.744308

  4 S  1.68714400E-01  1.000000

  5 P  1.68714400E-01  1.000000

  H (Hydrogen)
  ------------
            Exponent  Coefficients 
       -------------- ---------------------------------------------------------
  1 S  1.87311370E+01  0.033495
  1 S  2.82539370E+00  0.234727
  1 S  6.40121700E-01  0.813757

  2 S  1.61277800E-01  1.000000



 Summary of "ao basis" -> "ao basis" (spherical)
 ------------------------------------------------------------------------------
       Tag                 Description            Shells   Functions and Types
 ---------------- ------------------------------  ------  ---------------------
 O                           6-31G                   5        9   3s2p
 C                           6-31G                   5        9   3s2p
 H                           6-31G                   2        2   2s


                                 NWChem SCF Module
                                 -----------------


                                   diethylether



  ao basis        = "ao basis"
  functions       =    65
  atoms           =    15
  closed shells   =    21
  open shells     =     0
  charge          =   0.00
  wavefunction    = RHF 
  input vectors   = atomic
  output vectors  = ./molecule.movecs
  use symmetry    = T
  symmetry adapt  = T


 Summary of "ao basis" -> "ao basis" (spherical)
 ------------------------------------------------------------------------------
       Tag                 Description            Shells   Functions and Types
 ---------------- ------------------------------  ------  ---------------------
 O                           6-31G                   5        9   3s2p
 C                           6-31G                   5        9   3s2p
 H                           6-31G                   2        2   2s


      Symmetry analysis of basis
      --------------------------

        a1         25
        a2          8
        b1         22
        b2         10


 Forming initial guess at       0.1s


      Superposition of Atomic Density Guess
      -------------------------------------

 Sum of atomic energies:        -230.37769422

      Non-variational initial energy
      ------------------------------

 Total energy =    -233.656574
 1-e energy   =    -688.438919
 2-e energy   =     263.944541
 HOMO         =      -0.315085
 LUMO         =       0.147162


      Symmetry analysis of molecular orbitals - initial
      -------------------------------------------------

  Numbering of irreducible representations: 

     1 a1          2 a2          3 b1          4 b2      

  Orbital symmetries:

     1 a1          2 b1          3 a1          4 a1          5 b1      
     6 a1          7 b1          8 a1          9 b1         10 a1      
    11 b1         12 b2         13 a1         14 a2         15 a1      
    16 b2         17 b1         18 b1         19 a1         20 a2      
    21 b2         22 a1         23 b1         24 a1         25 a1      
    26 b2         27 b1         28 a2         29 b1         30 a1      
    31 a1      


 Starting SCF solution at       0.1s



 ----------------------------------------------
         Quadratically convergent ROHF

 Convergence threshold     :          1.000E-04
 Maximum no. of iterations :           30
 Final Fock-matrix accuracy:          1.000E-07
 ----------------------------------------------


 Integral file          = ./molecule.aoints.0
 Record size in doubles =  65536        No. of integs per rec  =  43688
 Max. records in memory =      8        Max. records in file   = 160458
 No. of bits per label  =      8        No. of bits per value  =     64


 #quartets = 1.362D+05 #integrals = 5.232D+05 #direct =  0.0% #cached =100.0%


File balance: exchanges=     2  moved=     2  time=   0.0


              iter       energy          gnorm     gmax       time
             ----- ------------------- --------- --------- --------
                 1     -231.9860567375  8.46D-01  2.12D-01      0.2
                 2     -232.0344967828  3.62D-01  9.61D-02      0.2
                 3     -232.0419399786  1.73D-02  4.43D-03      0.3
                 4     -232.0419711577  6.87D-05  1.48D-05      0.3


       Final RHF  results 
       ------------------ 

         Total SCF energy =   -232.041971157740
      One-electron energy =   -692.508958914826
      Two-electron energy =    269.629183773387
 Nuclear repulsion energy =    190.837803983699

        Time for solution =      0.2s



       Symmetry analysis of molecular orbitals - final
       -----------------------------------------------

  Numbering of irreducible representations: 

     1 a1          2 a2          3 b1          4 b2      

  Orbital symmetries:

     1 a1          2 b1          3 a1          4 b1          5 a1      
     6 a1          7 b1          8 a1          9 b1         10 a1      
    11 b2         12 b1         13 a2         14 a1         15 a1      
    16 b2         17 b1         18 b1         19 a2         20 a1      
    21 b2         22 a1         23 b1         24 a1         25 b2      
    26 a1         27 b1         28 a2         29 b1         30 b2      
    31 a2      

             Final eigenvalues
             -----------------

              1      
    1  -20.5504
    2  -11.2763
    3  -11.2763
    4  -11.2129
    5  -11.2129
    6   -1.3887
    7   -1.0509
    8   -0.9863
    9   -0.8492
   10   -0.8284
   11   -0.6814
   12   -0.6671
   13   -0.6073
   14   -0.5989
   15   -0.5463
   16   -0.5273
   17   -0.5188
   18   -0.4931
   19   -0.4845
   20   -0.4588
   21   -0.4094
   22    0.2318
   23    0.2557
   24    0.2799
   25    0.2909
   26    0.3072
   27    0.3232
   28    0.3247
   29    0.3412
   30    0.3505
   31    0.3510

                       ROHF Final Molecular Orbital Analysis
                       -------------------------------------

 Vector    6  Occ=2.000000D+00  E=-1.388742D+00  Symmetry=a1
              MO Center=  7.6D-17, -2.0D-18, -2.1D-03, r^2= 7.0D-01
   Bfn.  Coefficient  Atom+Function         Bfn.  Coefficient  Atom+Function  
  ----- ------------  ---------------      ----- ------------  ---------------
     6      0.500275   1 O  s                 2      0.422714   1 O  s         
     1     -0.198878   1 O  s         

 Vector    7  Occ=2.000000D+00  E=-1.050950D+00  Symmetry=b1
              MO Center= -4.5D-16,  1.2D-17,  6.4D-02, r^2= 4.0D+00
   Bfn.  Coefficient  Atom+Function         Bfn.  Coefficient  Atom+Function  
  ----- ------------  ---------------      ----- ------------  ---------------
    11      0.219295   2 C  s                20     -0.219295   3 C  s         
    15      0.186592   2 C  s                24     -0.186592   3 C  s         
    29      0.186691   4 C  s                38     -0.186691   5 C  s         
     3     -0.161612   1 O  px               33      0.161549   4 C  s         
    42     -0.161549   5 C  s         

 Vector    8  Occ=2.000000D+00  E=-9.862748D-01  Symmetry=a1
              MO Center=  3.9D-16,  9.7D-18, -1.3D-01, r^2= 5.6D+00
   Bfn.  Coefficient  Atom+Function         Bfn.  Coefficient  Atom+Function  
  ----- ------------  ---------------      ----- ------------  ---------------
    29     -0.234338   4 C  s                38     -0.234338   5 C  s         
    33     -0.229337   4 C  s                42     -0.229337   5 C  s         
     6      0.216944   1 O  s         

 Vector    9  Occ=2.000000D+00  E=-8.491555D-01  Symmetry=b1
              MO Center=  1.4D-16, -7.5D-18, -1.1D-01, r^2= 5.6D+00
   Bfn.  Coefficient  Atom+Function         Bfn.  Coefficient  Atom+Function  
  ----- ------------  ---------------      ----- ------------  ---------------
    33      0.245959   4 C  s                42     -0.245959   5 C  s         
    15     -0.203718   2 C  s                24      0.203718   3 C  s         
     3      0.194343   1 O  px               29      0.183616   4 C  s         
    38     -0.183616   5 C  s                11     -0.169656   2 C  s         
    20      0.169656   3 C  s         

 Vector   10  Occ=2.000000D+00  E=-8.284352D-01  Symmetry=a1
              MO Center=  2.9D-16, -4.0D-16,  3.8D-01, r^2= 3.9D+00
   Bfn.  Coefficient  Atom+Function         Bfn.  Coefficient  Atom+Function  
  ----- ------------  ---------------      ----- ------------  ---------------
     6      0.260328   1 O  s                15     -0.226191   2 C  s         
    24     -0.226191   3 C  s                11     -0.176866   2 C  s         
    20     -0.176866   3 C  s                 2      0.154167   1 O  s         

 Vector   11  Occ=2.000000D+00  E=-6.814342D-01  Symmetry=b2
              MO Center=  2.7D-15, -9.9D-17,  3.0D-01, r^2= 2.7D+00
   Bfn.  Coefficient  Atom+Function         Bfn.  Coefficient  Atom+Function  
  ----- ------------  ---------------      ----- ------------  ---------------
     4      0.317307   1 O  py               13      0.248131   2 C  py        
    22      0.248131   3 C  py                8      0.191156   1 O  py        

 Vector   12  Occ=2.000000D+00  E=-6.671080D-01  Symmetry=b1
              MO Center=  1.4D-16,  5.8D-17,  3.1D-01, r^2= 3.2D+00
   Bfn.  Coefficient  Atom+Function         Bfn.  Coefficient  Atom+Function  
  ----- ------------  ---------------      ----- ------------  ---------------
     3      0.342866   1 O  px               14      0.231990   2 C  pz        
    23     -0.231990   3 C  pz                7      0.226875   1 O  px        

 Vector   13  Occ=2.000000D+00  E=-6.073125D-01  Symmetry=a2
              MO Center= -2.4D-15, -2.2D-17,  9.8D-02, r^2= 5.0D+00
   Bfn.  Coefficient  Atom+Function         Bfn.  Coefficient  Atom+Function  
  ----- ------------  ---------------      ----- ------------  ---------------
    13      0.240785   2 C  py               22     -0.240785   3 C  py        
    31      0.214572   4 C  py               40     -0.214572   5 C  py        

 Vector   14  Occ=2.000000D+00  E=-5.989251D-01  Symmetry=a1
              MO Center=  1.0D-14, -8.1D-17, -1.6D-01, r^2= 4.3D+00
   Bfn.  Coefficient  Atom+Function         Bfn.  Coefficient  Atom+Function  
  ----- ------------  ---------------      ----- ------------  ---------------
     5      0.322792   1 O  pz                9      0.229620   1 O  pz        
    12      0.213158   2 C  px               21     -0.213158   3 C  px        
    30     -0.202231   4 C  px               39      0.202231   5 C  px        

 Vector   15  Occ=2.000000D+00  E=-5.462530D-01  Symmetry=a1
              MO Center= -1.1D-15,  3.1D-16, -3.4D-01, r^2= 7.9D+00
   Bfn.  Coefficient  Atom+Function         Bfn.  Coefficient  Atom+Function  
  ----- ------------  ---------------      ----- ------------  ---------------
    32      0.238773   4 C  pz               41      0.238773   5 C  pz        
    54      0.195209  10 H  s                60      0.195209  13 H  s         
    30     -0.189871   4 C  px               39      0.189871   5 C  px        
    55      0.170281  10 H  s                61      0.170281  13 H  s         
     6      0.160832   1 O  s         

 Vector   16  Occ=2.000000D+00  E=-5.272653D-01  Symmetry=b2
              MO Center=  6.4D-17,  7.5D-17, -6.1D-01, r^2= 6.0D+00
   Bfn.  Coefficient  Atom+Function         Bfn.  Coefficient  Atom+Function  
  ----- ------------  ---------------      ----- ------------  ---------------
    31      0.287294   4 C  py               40      0.287294   5 C  py        
     4     -0.236168   1 O  py               35      0.175803   4 C  py        
    44      0.175803   5 C  py                8     -0.167999   1 O  py        
    56     -0.160975  11 H  s                58      0.160975  12 H  s         
    62     -0.160975  14 H  s                64      0.160975  15 H  s         

 Vector   17  Occ=2.000000D+00  E=-5.187921D-01  Symmetry=b1
              MO Center= -4.7D-16, -1.0D-17, -2.2D-01, r^2= 7.1D+00
   Bfn.  Coefficient  Atom+Function         Bfn.  Coefficient  Atom+Function  
  ----- ------------  ---------------      ----- ------------  ---------------
    32      0.259371   4 C  pz               41     -0.259371   5 C  pz        
    54      0.165892  10 H  s                60     -0.165892  13 H  s         
     3     -0.156110   1 O  px        

 Vector   18  Occ=2.000000D+00  E=-4.930670D-01  Symmetry=b1
              MO Center= -8.4D-15,  2.3D-18,  2.6D-02, r^2= 5.0D+00
   Bfn.  Coefficient  Atom+Function         Bfn.  Coefficient  Atom+Function  
  ----- ------------  ---------------      ----- ------------  ---------------
    12      0.268333   2 C  px               21      0.268333   3 C  px        
    30     -0.265636   4 C  px               39     -0.265636   5 C  px        
     3     -0.206578   1 O  px                7     -0.171186   1 O  px        

 Vector   19  Occ=2.000000D+00  E=-4.845302D-01  Symmetry=a2
              MO Center= -4.1D-17,  2.9D-17,  1.2D-03, r^2= 5.6D+00
   Bfn.  Coefficient  Atom+Function         Bfn.  Coefficient  Atom+Function  
  ----- ------------  ---------------      ----- ------------  ---------------
    13      0.227498   2 C  py               22     -0.227498   3 C  py        
    31     -0.226402   4 C  py               40      0.226402   5 C  py        

 Vector   20  Occ=2.000000D+00  E=-4.588304D-01  Symmetry=a1
              MO Center= -3.6D-16, -1.1D-16,  1.2D-02, r^2= 2.7D+00
   Bfn.  Coefficient  Atom+Function         Bfn.  Coefficient  Atom+Function  
  ----- ------------  ---------------      ----- ------------  ---------------
     5      0.432762   1 O  pz                9      0.364700   1 O  pz        
    14     -0.235843   2 C  pz               23     -0.235843   3 C  pz        

 Vector   21  Occ=2.000000D+00  E=-4.094458D-01  Symmetry=b2
              MO Center= -1.3D-16,  2.1D-16,  2.6D-01, r^2= 2.2D+00
   Bfn.  Coefficient  Atom+Function         Bfn.  Coefficient  Atom+Function  
  ----- ------------  ---------------      ----- ------------  ---------------
     4      0.511565   1 O  py                8      0.438469   1 O  py        
    47     -0.178858   6 H  s                49      0.178858   7 H  s         
    51      0.178858   8 H  s                53     -0.178858   9 H  s         
    13     -0.175996   2 C  py               22     -0.175996   3 C  py        

 Vector   22  Occ=0.000000D+00  E= 2.318076D-01  Symmetry=a1
              MO Center= -3.2D-16,  8.8D-17,  8.6D-01, r^2= 6.1D+00
   Bfn.  Coefficient  Atom+Function         Bfn.  Coefficient  Atom+Function  
  ----- ------------  ---------------      ----- ------------  ---------------
    15      1.215874   2 C  s                24      1.215874   3 C  s         
    47     -0.862140   6 H  s                49     -0.862140   7 H  s         
    51     -0.862140   8 H  s                53     -0.862140   9 H  s         
    18      0.620944   2 C  pz               27      0.620944   3 C  pz        
    33      0.581682   4 C  s                42      0.581682   5 C  s         

 Vector   23  Occ=0.000000D+00  E= 2.557473D-01  Symmetry=b1
              MO Center=  2.9D-15, -1.8D-16, -4.8D-03, r^2= 1.0D+01
   Bfn.  Coefficient  Atom+Function         Bfn.  Coefficient  Atom+Function  
  ----- ------------  ---------------      ----- ------------  ---------------
    33      1.522321   4 C  s                42     -1.522321   5 C  s         
    15      0.842386   2 C  s                24     -0.842386   3 C  s         
    55     -0.789807  10 H  s                61      0.789807  13 H  s         
    57     -0.648085  11 H  s                59     -0.648085  12 H  s         
    63      0.648085  14 H  s                65      0.648085  15 H  s         

 Vector   24  Occ=0.000000D+00  E= 2.798622D-01  Symmetry=a1
              MO Center= -3.8D-14,  5.5D-16, -5.2D-01, r^2= 9.3D+00
   Bfn.  Coefficient  Atom+Function         Bfn.  Coefficient  Atom+Function  
  ----- ------------  ---------------      ----- ------------  ---------------
    33      1.910904   4 C  s                42      1.910904   5 C  s         
    57     -0.873385  11 H  s                59     -0.873385  12 H  s         
    63     -0.873385  14 H  s                65     -0.873385  15 H  s         
    15     -0.737614   2 C  s                24     -0.737614   3 C  s         
    55     -0.466330  10 H  s                61     -0.466330  13 H  s         

 Vector   25  Occ=0.000000D+00  E= 2.909226D-01  Symmetry=b2
              MO Center= -3.9D-15,  6.1D-15,  3.5D-01, r^2= 7.1D+00
   Bfn.  Coefficient  Atom+Function         Bfn.  Coefficient  Atom+Function  
  ----- ------------  ---------------      ----- ------------  ---------------
    47      0.859507   6 H  s                49     -0.859507   7 H  s         
    51     -0.859507   8 H  s                53      0.859507   9 H  s         
    17     -0.719575   2 C  py               26     -0.719575   3 C  py        
    57     -0.680808  11 H  s                59      0.680808  12 H  s         
    63     -0.680808  14 H  s                65      0.680808  15 H  s         

 Vector   26  Occ=0.000000D+00  E= 3.072057D-01  Symmetry=a1
              MO Center=  2.8D-14, -4.8D-15,  1.6D-01, r^2= 1.1D+01
   Bfn.  Coefficient  Atom+Function         Bfn.  Coefficient  Atom+Function  
  ----- ------------  ---------------      ----- ------------  ---------------
    55      1.339859  10 H  s                61      1.339859  13 H  s         
    15      0.689798   2 C  s                24      0.689798   3 C  s         
    34      0.617650   4 C  px               43     -0.617650   5 C  px        
    36     -0.613106   4 C  pz               45     -0.613106   5 C  pz        
     6     -0.587886   1 O  s                33     -0.435154   4 C  s         

 Vector   27  Occ=0.000000D+00  E= 3.232047D-01  Symmetry=b1
              MO Center= -5.8D-14, -1.5D-16, -4.4D-01, r^2= 1.0D+01
   Bfn.  Coefficient  Atom+Function         Bfn.  Coefficient  Atom+Function  
  ----- ------------  ---------------      ----- ------------  ---------------
    55      0.992580  10 H  s                61     -0.992580  13 H  s         
    57     -0.861931  11 H  s                59     -0.861931  12 H  s         
    63      0.861931  14 H  s                65      0.861931  15 H  s         
    36     -0.755230   4 C  pz               45      0.755230   5 C  pz        
    15     -0.750456   2 C  s                24      0.750456   3 C  s         

 Vector   28  Occ=0.000000D+00  E= 3.246528D-01  Symmetry=a2
              MO Center=  1.6D-15, -8.8D-16, -4.4D-01, r^2= 8.4D+00
   Bfn.  Coefficient  Atom+Function         Bfn.  Coefficient  Atom+Function  
  ----- ------------  ---------------      ----- ------------  ---------------
    57      0.969088  11 H  s                59     -0.969088  12 H  s         
    63     -0.969088  14 H  s                65      0.969088  15 H  s         
    35      0.796821   4 C  py               44     -0.796821   5 C  py        
    47     -0.626007   6 H  s                49      0.626007   7 H  s         
    51     -0.626007   8 H  s                53      0.626007   9 H  s         

 Vector   29  Occ=0.000000D+00  E= 3.411954D-01  Symmetry=b1
              MO Center=  6.2D-14,  1.6D-16,  7.8D-01, r^2= 9.0D+00
   Bfn.  Coefficient  Atom+Function         Bfn.  Coefficient  Atom+Function  
  ----- ------------  ---------------      ----- ------------  ---------------
    15      1.579373   2 C  s                24     -1.579373   3 C  s         
    33     -1.068161   4 C  s                42      1.068161   5 C  s         
    55      1.014949  10 H  s                61     -1.014949  13 H  s         
    47     -0.971375   6 H  s                49     -0.971375   7 H  s         
    51      0.971375   8 H  s                53      0.971375   9 H  s         

 Vector   30  Occ=0.000000D+00  E= 3.504525D-01  Symmetry=b2
              MO Center=  5.3D-15, -1.3D-15, -1.6D-01, r^2= 8.3D+00
   Bfn.  Coefficient  Atom+Function         Bfn.  Coefficient  Atom+Function  
  ----- ------------  ---------------      ----- ------------  ---------------
    35      1.061626   4 C  py               44      1.061626   5 C  py        
    57      0.974834  11 H  s                59     -0.974834  12 H  s         
    63      0.974834  14 H  s                65     -0.974834  15 H  s         
    17     -0.907686   2 C  py               26     -0.907686   3 C  py        
    47      0.769721   6 H  s                49     -0.769721   7 H  s         

 Vector   31  Occ=0.000000D+00  E= 3.510139D-01  Symmetry=a2
              MO Center= -8.6D-16, -1.2D-16,  5.4D-01, r^2= 6.9D+00
   Bfn.  Coefficient  Atom+Function         Bfn.  Coefficient  Atom+Function  
  ----- ------------  ---------------      ----- ------------  ---------------
    17      1.114353   2 C  py               26     -1.114353   3 C  py        
    47     -1.085084   6 H  s                49      1.085084   7 H  s         
    51     -1.085084   8 H  s                53      1.085084   9 H  s         
    35     -0.854481   4 C  py               44      0.854481   5 C  py        
    57     -0.688701  11 H  s                59      0.688701  12 H  s         

 Vector   32  Occ=0.000000D+00  E= 3.590905D-01  Symmetry=a1
              MO Center= -3.3D-15,  1.4D-16,  4.8D-01, r^2= 5.9D+00
   Bfn.  Coefficient  Atom+Function         Bfn.  Coefficient  Atom+Function  
  ----- ------------  ---------------      ----- ------------  ---------------
     6      1.579982   1 O  s                16     -0.921979   2 C  px        
    25      0.921979   3 C  px               15     -0.794673   2 C  s         
    24     -0.794673   3 C  s                36     -0.685232   4 C  pz        
    45     -0.685232   5 C  pz               55      0.644478  10 H  s         
    61      0.644478  13 H  s                 9      0.616308   1 O  pz        

 Vector   33  Occ=0.000000D+00  E= 3.830829D-01  Symmetry=a1
              MO Center=  2.6D-16,  3.4D-17, -5.6D-02, r^2= 6.7D+00
   Bfn.  Coefficient  Atom+Function         Bfn.  Coefficient  Atom+Function  
  ----- ------------  ---------------      ----- ------------  ---------------
    15      1.411374   2 C  s                24      1.411374   3 C  s         
    34     -1.169332   4 C  px               43      1.169332   5 C  px        
    18     -1.110655   2 C  pz               27     -1.110655   3 C  pz        
    33     -0.952199   4 C  s                42     -0.952199   5 C  s         
    36     -0.736035   4 C  pz               45     -0.736035   5 C  pz        

 Vector   34  Occ=0.000000D+00  E= 4.391249D-01  Symmetry=b1
              MO Center=  1.4D-15, -7.3D-17,  1.9D-01, r^2= 5.5D+00
   Bfn.  Coefficient  Atom+Function         Bfn.  Coefficient  Atom+Function  
  ----- ------------  ---------------      ----- ------------  ---------------
    16      1.577065   2 C  px               25      1.577065   3 C  px        
    36      0.862368   4 C  pz               45     -0.862368   5 C  pz        
     7      0.857867   1 O  px               33      0.662396   4 C  s         
    42     -0.662396   5 C  s                34      0.629240   4 C  px        
    43      0.629240   5 C  px               12      0.286982   2 C  px        

 Vector   35  Occ=0.000000D+00  E= 4.546859D-01  Symmetry=b1
              MO Center=  1.3D-14,  3.4D-17, -1.5D-02, r^2= 6.8D+00
   Bfn.  Coefficient  Atom+Function         Bfn.  Coefficient  Atom+Function  
  ----- ------------  ---------------      ----- ------------  ---------------
    15      1.649769   2 C  s                24     -1.649769   3 C  s         
    18     -1.582077   2 C  pz               27      1.582077   3 C  pz        
    33     -1.228633   4 C  s                42      1.228633   5 C  s         
    34     -1.127718   4 C  px               43     -1.127718   5 C  px        
     7      1.062871   1 O  px               36     -0.645720   4 C  pz        

 Vector   36  Occ=0.000000D+00  E= 7.240046D-01  Symmetry=a1
              MO Center= -2.8D-16, -2.7D-16,  1.1D-01, r^2= 6.6D+00
   Bfn.  Coefficient  Atom+Function         Bfn.  Coefficient  Atom+Function  
  ----- ------------  ---------------      ----- ------------  ---------------
    18      0.772514   2 C  pz               27      0.772514   3 C  pz        
    36     -0.702627   4 C  pz               45     -0.702627   5 C  pz        
    15      0.397478   2 C  s                24      0.397478   3 C  s         
    32      0.383498   4 C  pz               41      0.383498   5 C  pz        
    14     -0.369773   2 C  pz               23     -0.369773   3 C  pz        


 center of mass
 --------------
 x =  -0.00000000 y =   0.00000000 z =  -0.01784680

 moments of inertia (a.u.)
 ------------------
         100.339244215766           0.000000000000           0.000000000000
           0.000000000000         850.892250784291           0.000000000000
           0.000000000000           0.000000000000         795.509023781260

  Mulliken analysis of the total density
  --------------------------------------

    Atom       Charge   Shell Charges
 -----------   ------   -------------------------------------------------------
    1 O    8     8.70   2.00  0.87  2.91  1.06  1.86
    2 C    6     5.95   2.00  0.67  2.01  0.59  0.69
    3 C    6     5.95   2.00  0.67  2.01  0.59  0.69
    4 C    6     6.45   2.00  0.65  2.08  0.71  1.01
    5 C    6     6.45   2.00  0.65  2.08  0.71  1.01
    6 H    1     0.86   0.55  0.32
    7 H    1     0.86   0.55  0.32
    8 H    1     0.86   0.55  0.32
    9 H    1     0.86   0.55  0.32
   10 H    1     0.86   0.54  0.32
   11 H    1     0.83   0.53  0.30
   12 H    1     0.83   0.53  0.30
   13 H    1     0.86   0.54  0.32
   14 H    1     0.83   0.53  0.30
   15 H    1     0.83   0.53  0.30

       Multipole analysis of the density wrt the origin
       ------------------------------------------------

     L   x y z        total         open         nuclear
     -   - - -        -----         ----         -------
     0   0 0 0     -0.000000      0.000000     42.000000

     1   1 0 0      0.000000      0.000000      0.000000
     1   0 1 0     -0.000000      0.000000      0.000000
     1   0 0 1      0.626530      0.000000     -0.000000

     2   2 0 0    -22.766424      0.000000    473.987319
     2   1 1 0     -0.000000      0.000000      0.000000
     2   1 0 1      0.000000      0.000000      0.000000
     2   0 2 0    -24.833640      0.000000     22.303484
     2   0 1 1      0.000000      0.000000      0.000000
     2   0 0 2    -25.154752      0.000000     56.750297


 Parallel integral file used      14 records with       0 large values


 Task  times  cpu:        0.3s     wall:        0.3s


                                NWChem Input Module
                                -------------------


 Summary of allocated global arrays
-----------------------------------
  No active global arrays


MA_summarize_allocated_blocks: starting scan ...
MA_summarize_allocated_blocks: scan completed: 0 heap blocks, 0 stack blocks
MA usage statistics:

	allocation statistics:
					      heap	     stack
					      ----	     -----
	current number of blocks	         0	         0
	maximum number of blocks	        18	        14
	current total bytes		         0	         0
	maximum total bytes		   4268168	  22510888
	maximum total K-bytes		      4269	     22511
	maximum total M-bytes		         5	        23


                                     CITATION
                                     --------
                Please cite the following reference when publishing
                           results obtained with NWChem:

          E. Apra, E. J. Bylaska, W. A. de Jong, N. Govind, K. Kowalski,
       T. P. Straatsma, M. Valiev, H. J. J. van Dam, Y. Alexeev, J. Anchell,
       V. Anisimov, F. W. Aquino, R. Atta-Fynn, J. Autschbach, N. P. Bauman,
     J. C. Becca, D. E. Bernholdt, K. Bhaskaran-Nair, S. Bogatko, P. Borowski,
         J. Boschen, J. Brabec, A. Bruner, E. Cauet, Y. Chen, G. N. Chuev,
      C. J. Cramer, J. Daily, M. J. O. Deegan, T. H. Dunning Jr., M. Dupuis,
   K. G. Dyall, G. I. Fann, S. A. Fischer, A. Fonari, H. Fruchtl, L. Gagliardi,
      J. Garza, N. Gawande, S. Ghosh, K. Glaesemann, A. W. Gotz, J. Hammond,
       V. Helms, E. D. Hermes, K. Hirao, S. Hirata, M. Jacquelin, L. Jensen,
   B. G. Johnson, H. Jonsson, R. A. Kendall, M. Klemm, R. Kobayashi, V. Konkov,
      S. Krishnamoorthy, M. Krishnan, Z. Lin, R. D. Lins, R. J. Littlefield,
      A. J. Logsdail, K. Lopata, W. Ma, A. V. Marenich, J. Martin del Campo,
   D. Mejia-Rodriguez, J. E. Moore, J. M. Mullin, T. Nakajima, D. R. Nascimento,
    J. A. Nichols, P. J. Nichols, J. Nieplocha, A. Otero-de-la-Roza, B. Palmer,
    A. Panyala, T. Pirojsirikul, B. Peng, R. Peverati, J. Pittner, L. Pollack,
   R. M. Richard, P. Sadayappan, G. C. Schatz, W. A. Shelton, D. W. Silverstein,
   D. M. A. Smith, T. A. Soares, D. Song, M. Swart, H. L. Taylor, G. S. Thomas,
            V. Tipparaju, D. G. Truhlar, K. Tsemekhman, T. Van Voorhis,
      A. Vazquez-Mayagoitia, P. Verma, O. Villa, A. Vishnu, K. D. Vogiatzis,
        D. Wang, J. H. Weare, M. J. Williamson, T. L. Windus, K. Wolinski,
        A. T. Wong, Q. Wu, C. Yang, Q. Yu, M. Zacharias, Z. Zhang, Y. Zhao,
                                and R. J. Harrison
                        "NWChem: Past, present, and future
                         J. Chem. Phys. 152, 184102 (2020)
                               doi:10.1063/5.0004997

                                      AUTHORS
                                      -------
  E. Apra, E. J. Bylaska, N. Govind, K. Kowalski, M. Valiev, D. Mejia-Rodriguez,
       A. Kunitsa, N. P. Bauman, A. Panyala, W. A. de Jong, T. P. Straatsma,
   H. J. J. van Dam, D. Wang, T. L. Windus, J. Hammond, J. Autschbach, A. Woods,
    K. Bhaskaran-Nair, J. Brabec, K. Lopata, S. A. Fischer, S. Krishnamoorthy,
     M. Jacquelin, W. Ma, M. Klemm, O. Villa, Y. Chen, V. Anisimov, F. Aquino,
     S. Hirata, M. T. Hackler, E. Hermes, L. Jensen, J. E. Moore, J. C. Becca,
      V. Konjkov, T. Risthaus, M. Malagoli, A. Marenich, A. Otero-de-la-Roza,
        J. Mullin, P. Nichols, R. Peverati, J. Pittner, Y. Zhao, P.-D. Fan,
        A. Fonari, M. J. Williamson, R. J. Harrison, J. R. Rehr, M. Dupuis,
     D. Silverstein, D. M. A. Smith, J. Nieplocha, V. Tipparaju, M. Krishnan,
     B. E. Van Kuiken, A. Vazquez-Mayagoitia, M. Swart, Q. Wu, T. Van Voorhis,
     A. A. Auer, M. Nooijen, L. D. Crosby, E. Brown, G. Cisneros, G. I. Fann,
   H. Fruchtl, J. Garza, K. Hirao, R. A. Kendall, J. A. Nichols, K. Tsemekhman,
    K. Wolinski, J. Anchell, D. E. Bernholdt, P. Borowski, T. Clark, D. Clerc,
   H. Dachsel, M. J. O. Deegan, K. Dyall, D. Elwood, E. Glendening, M. Gutowski,
   A. C. Hess, J. Jaffe, B. G. Johnson, J. Ju, R. Kobayashi, R. Kutteh, Z. Lin,
   R. Littlefield, X. Long, B. Meng, T. Nakajima, S. Niu, L. Pollack, M. Rosing,
   K. Glaesemann, G. Sandrone, M. Stave, H. Taylor, G. Thomas, J. H. van Lenthe,
                               A. T. Wong, Z. Zhang.

 Total times  cpu:        0.3s     wall:        0.3s
