 argument  1 = diethyletherOptimized.txt



============================== echo of input deck ==============================
echo

start molecule

title "diethylether"
memory total 2 gb

charge 0
geometry units angstrom print xyz
 O     0.00000000     0.00000000    -0.22784882
 C    -1.17572811     0.00000000     0.52502392
 C     1.17572811     0.00000000     0.52502392
 C    -2.35878452     0.00000000    -0.41940646
 C     2.35878452     0.00000000    -0.41940646
 H    -1.20754240     0.88298938     1.17637288
 H    -1.20754240    -0.88298938     1.17637288
 H     1.20754240    -0.88298938     1.17637288
 H     1.20754240     0.88298938     1.17637288
 H    -3.29612084     0.00000000     0.14134896
 H    -2.33527916    -0.88415659    -1.05869291
 H    -2.33527916     0.88415659    -1.05869291
 H     3.29612084     0.00000000     0.14134896
 H     2.33527916    -0.88415659    -1.05869291
 H     2.33527916     0.88415659    -1.05869291

end

basis spherical
 * library cc-pVDZ
end

task scf
================================================================================


                                         
                                         


             Northwest Computational Chemistry Package (NWChem) 7.2.2
             --------------------------------------------------------


                    Environmental Molecular Sciences Laboratory
                       Pacific Northwest National Laboratory
                                Richland, WA 99352

                              Copyright (c) 1994-2022
                       Pacific Northwest National Laboratory
                            Battelle Memorial Institute

             NWChem is an open-source computational chemistry package
                        distributed under the terms of the
                      Educational Community License (ECL) 2.0
             A copy of the license is included with this distribution
                              in the LICENSE.TXT file

                                  ACKNOWLEDGMENT
                                  --------------

            This software and its documentation were developed at the
            EMSL at Pacific Northwest National Laboratory, a multiprogram
            national laboratory, operated for the U.S. Department of Energy
            by Battelle under Contract Number DE-AC05-76RL01830. Support
            for this work was provided by the Department of Energy Office
            of Biological and Environmental Research, Office of Basic
            Energy Sciences, and the Office of Advanced Scientific Computing.


           Job information
           ---------------

    hostname        = dhcp-10-22-10-180.wlan.ntnu.no
    program         = nwchem
    date            = Thu Mar 21 12:33:19 2024

    compiled        = Sun_Dec_10_10:51:21_2023
    source          = /private/tmp/nwchem-20231210-5888-3uvdjr/nwchem-7.2.2
    nwchem branch   = 7.2.2
    nwchem revision = 74936fb9
    ga revision     = 5.8.0
    use scalapack   = T
    input           = diethyletherOptimized.txt
    prefix          = molecule.
    data base       = ./molecule.db
    status          = startup
    nproc           =        4
    time left       =     -1s



           Memory information
           ------------------

    heap     =   67108860 doubles =    512.0 Mbytes
    stack    =   67108865 doubles =    512.0 Mbytes
    global   =  134217728 doubles =   1024.0 Mbytes (distinct from heap & stack)
    total    =  268435453 doubles =   2048.0 Mbytes
    verify   = yes
    hardfail = no 


           Directory information
           ---------------------

  0 permanent = .
  0 scratch   = .




                                NWChem Input Module
                                -------------------


                                   diethylether
                                   ------------

 Scaling coordinates for geometry "geometry" by  1.889725989
 (inverse scale =  0.529177249)

 C2V symmetry detected

          ------
          auto-z
          ------
  no constraints, skipping    0.0000000000000000     
  no constraints, skipping    0.0000000000000000     


                             Geometry "geometry" -> ""
                             -------------------------

 Output coordinates in angstroms (scale by  1.889725989 to convert to a.u.)

  No.       Tag          Charge          X              Y              Z
 ---- ---------------- ---------- -------------- -------------- --------------
    1 O                    8.0000     0.00000000     0.00000000    -0.23256398
    2 C                    6.0000    -1.17572811     0.00000000     0.52030876
    3 C                    6.0000     1.17572811     0.00000000     0.52030876
    4 C                    6.0000    -2.35878452     0.00000000    -0.42412162
    5 C                    6.0000     2.35878452     0.00000000    -0.42412162
    6 H                    1.0000    -1.20754240     0.88298938     1.17165772
    7 H                    1.0000    -1.20754240    -0.88298938     1.17165772
    8 H                    1.0000     1.20754240    -0.88298938     1.17165772
    9 H                    1.0000     1.20754240     0.88298938     1.17165772
   10 H                    1.0000    -3.29612084     0.00000000     0.13663380
   11 H                    1.0000    -2.33527916    -0.88415659    -1.06340807
   12 H                    1.0000    -2.33527916     0.88415659    -1.06340807
   13 H                    1.0000     3.29612084     0.00000000     0.13663380
   14 H                    1.0000     2.33527916    -0.88415659    -1.06340807
   15 H                    1.0000     2.33527916     0.88415659    -1.06340807

      Atomic Mass 
      ----------- 

      O                 15.994910
      C                 12.000000
      H                  1.007825


 Effective nuclear repulsion energy (a.u.)     190.8378039837

            Nuclear Dipole moment (a.u.) 
            ----------------------------
        X                 Y               Z
 ---------------- ---------------- ----------------
     0.0000000000     0.0000000000    -0.0000000000

      Symmetry information
      --------------------

 Group name             C2v       
 Group number             16
 Group order               4
 No. of unique centers     6

      Symmetry unique atoms

     1    2    4    6   10   11



                                Z-matrix (autoz)
                                -------- 

 Units are Angstrom for bonds and degrees for angles

      Type          Name      I     J     K     L     M      Value
      ----------- --------  ----- ----- ----- ----- ----- ----------
    1 Stretch                  1     2                       1.39612
    2 Stretch                  1     3                       1.39612
    3 Stretch                  2     4                       1.51379
    4 Stretch                  2     6                       1.09770
    5 Stretch                  2     7                       1.09770
    6 Stretch                  3     5                       1.51379
    7 Stretch                  3     8                       1.09770
    8 Stretch                  3     9                       1.09770
    9 Stretch                  4    10                       1.09227
   10 Stretch                  4    11                       1.09132
   11 Stretch                  4    12                       1.09132
   12 Stretch                  5    13                       1.09227
   13 Stretch                  5    14                       1.09132
   14 Stretch                  5    15                       1.09132
   15 Bend                     1     2     4               108.76644
   16 Bend                     1     2     6               110.14473
   17 Bend                     1     2     7               110.14473
   18 Bend                     1     3     5               108.76644
   19 Bend                     1     3     8               110.14473
   20 Bend                     1     3     9               110.14473
   21 Bend                     2     1     3               114.73339
   22 Bend                     2     4    10               110.51004
   23 Bend                     2     4    11               110.40379
   24 Bend                     2     4    12               110.40379
   25 Bend                     3     5    13               110.51004
   26 Bend                     3     5    14               110.40379
   27 Bend                     3     5    15               110.40379
   28 Bend                     4     2     6               110.33741
   29 Bend                     4     2     7               110.33741
   30 Bend                     5     3     8               110.33741
   31 Bend                     5     3     9               110.33741
   32 Bend                     6     2     7               107.10509
   33 Bend                     8     3     9               107.10509
   34 Bend                    10     4    11               108.61590
   35 Bend                    10     4    12               108.61590
   36 Bend                    11     4    12               108.22587
   37 Bend                    13     5    14               108.61590
   38 Bend                    13     5    15               108.61590
   39 Bend                    14     5    15               108.22587
   40 Torsion                  1     2     4    10         180.00000
   41 Torsion                  1     2     4    11          59.81516
   42 Torsion                  1     2     4    12         -59.81516
   43 Torsion                  1     3     5    13         180.00000
   44 Torsion                  1     3     5    14         -59.81516
   45 Torsion                  1     3     5    15          59.81516
   46 Torsion                  2     1     3     5         180.00000
   47 Torsion                  2     1     3     8          58.96108
   48 Torsion                  2     1     3     9         -58.96108
   49 Torsion                  3     1     2     4         180.00000
   50 Torsion                  3     1     2     6          58.96108
   51 Torsion                  3     1     2     7         -58.96108
   52 Torsion                  6     2     4    10         -59.07942
   53 Torsion                  6     2     4    11        -179.26426
   54 Torsion                  6     2     4    12          61.10542
   55 Torsion                  7     2     4    10          59.07942
   56 Torsion                  7     2     4    11         -61.10542
   57 Torsion                  7     2     4    12         179.26426
   58 Torsion                  8     3     5    13         -59.07942
   59 Torsion                  8     3     5    14          61.10542
   60 Torsion                  8     3     5    15        -179.26426
   61 Torsion                  9     3     5    13          59.07942
   62 Torsion                  9     3     5    14         179.26426
   63 Torsion                  9     3     5    15         -61.10542


            XYZ format geometry
            -------------------
    15
 geometry
 O                     0.00000000     0.00000000    -0.23256398
 C                    -1.17572811     0.00000000     0.52030876
 C                     1.17572811     0.00000000     0.52030876
 C                    -2.35878452     0.00000000    -0.42412162
 C                     2.35878452     0.00000000    -0.42412162
 H                    -1.20754240     0.88298938     1.17165772
 H                    -1.20754240    -0.88298938     1.17165772
 H                     1.20754240    -0.88298938     1.17165772
 H                     1.20754240     0.88298938     1.17165772
 H                    -3.29612084     0.00000000     0.13663380
 H                    -2.33527916    -0.88415659    -1.06340807
 H                    -2.33527916     0.88415659    -1.06340807
 H                     3.29612084     0.00000000     0.13663380
 H                     2.33527916    -0.88415659    -1.06340807
 H                     2.33527916     0.88415659    -1.06340807

 ==============================================================================
                                internuclear distances
 ------------------------------------------------------------------------------
       center one      |      center two      | atomic units |  angstroms
 ------------------------------------------------------------------------------
    2 C                |   1 O                |     2.63829  |     1.39612
    3 C                |   1 O                |     2.63829  |     1.39612
    4 C                |   2 C                |     2.86066  |     1.51379
    5 C                |   3 C                |     2.86066  |     1.51379
    6 H                |   2 C                |     2.07435  |     1.09770
    7 H                |   2 C                |     2.07435  |     1.09770
    8 H                |   3 C                |     2.07435  |     1.09770
    9 H                |   3 C                |     2.07435  |     1.09770
   10 H                |   4 C                |     2.06408  |     1.09227
   11 H                |   4 C                |     2.06229  |     1.09132
   12 H                |   4 C                |     2.06229  |     1.09132
   13 H                |   5 C                |     2.06408  |     1.09227
   14 H                |   5 C                |     2.06229  |     1.09132
   15 H                |   5 C                |     2.06229  |     1.09132
 ------------------------------------------------------------------------------
                         number of included internuclear distances:         14
 ==============================================================================



 ==============================================================================
                                 internuclear angles
 ------------------------------------------------------------------------------
        center 1       |       center 2       |       center 3       |  degrees
 ------------------------------------------------------------------------------
    2 C                |   1 O                |   3 C                |   114.73
    1 O                |   2 C                |   4 C                |   108.77
    1 O                |   2 C                |   6 H                |   110.14
    1 O                |   2 C                |   7 H                |   110.14
    4 C                |   2 C                |   6 H                |   110.34
    4 C                |   2 C                |   7 H                |   110.34
    6 H                |   2 C                |   7 H                |   107.11
    1 O                |   3 C                |   5 C                |   108.77
    1 O                |   3 C                |   8 H                |   110.14
    1 O                |   3 C                |   9 H                |   110.14
    5 C                |   3 C                |   8 H                |   110.34
    5 C                |   3 C                |   9 H                |   110.34
    8 H                |   3 C                |   9 H                |   107.11
    2 C                |   4 C                |  10 H                |   110.51
    2 C                |   4 C                |  11 H                |   110.40
    2 C                |   4 C                |  12 H                |   110.40
   10 H                |   4 C                |  11 H                |   108.62
   10 H                |   4 C                |  12 H                |   108.62
   11 H                |   4 C                |  12 H                |   108.23
    3 C                |   5 C                |  13 H                |   110.51
    3 C                |   5 C                |  14 H                |   110.40
    3 C                |   5 C                |  15 H                |   110.40
   13 H                |   5 C                |  14 H                |   108.62
   13 H                |   5 C                |  15 H                |   108.62
   14 H                |   5 C                |  15 H                |   108.23
 ------------------------------------------------------------------------------
                            number of included internuclear angles:         25
 ==============================================================================



  library name resolved from: .nwchemrc
  library file name is: </opt/homebrew/Cellar/nwchem/7.2.2/share/nwchem/libraries/>
  


 Summary of "ao basis" -> "" (spherical)
 ------------------------------------------------------------------------------
       Tag                 Description            Shells   Functions and Types
 ---------------- ------------------------------  ------  ---------------------
 *                          cc-pVDZ                   on all atoms 


                      Basis "ao basis" -> "ao basis" (spherical)
                      -----
  O (Oxygen)
  ----------
            Exponent  Coefficients 
       -------------- ---------------------------------------------------------
  1 S  1.17200000E+04  0.000710
  1 S  1.75900000E+03  0.005470
  1 S  4.00800000E+02  0.027837
  1 S  1.13700000E+02  0.104800
  1 S  3.70300000E+01  0.283062
  1 S  1.32700000E+01  0.448719
  1 S  5.02500000E+00  0.270952
  1 S  1.01300000E+00  0.015458

  2 S  1.17200000E+04 -0.000160
  2 S  1.75900000E+03 -0.001263
  2 S  4.00800000E+02 -0.006267
  2 S  1.13700000E+02 -0.025716
  2 S  3.70300000E+01 -0.070924
  2 S  1.32700000E+01 -0.165411
  2 S  5.02500000E+00 -0.116955
  2 S  1.01300000E+00  0.557368

  3 S  3.02300000E-01  1.000000

  4 P  1.77000000E+01  0.043018
  4 P  3.85400000E+00  0.228913
  4 P  1.04600000E+00  0.508728

  5 P  2.75300000E-01  1.000000

  6 D  1.18500000E+00  1.000000

  C (Carbon)
  ----------
            Exponent  Coefficients 
       -------------- ---------------------------------------------------------
  1 S  6.66500000E+03  0.000692
  1 S  1.00000000E+03  0.005329
  1 S  2.28000000E+02  0.027077
  1 S  6.47100000E+01  0.101718
  1 S  2.10600000E+01  0.274740
  1 S  7.49500000E+00  0.448564
  1 S  2.79700000E+00  0.285074
  1 S  5.21500000E-01  0.015204

  2 S  6.66500000E+03 -0.000146
  2 S  1.00000000E+03 -0.001154
  2 S  2.28000000E+02 -0.005725
  2 S  6.47100000E+01 -0.023312
  2 S  2.10600000E+01 -0.063955
  2 S  7.49500000E+00 -0.149981
  2 S  2.79700000E+00 -0.127262
  2 S  5.21500000E-01  0.544529

  3 S  1.59600000E-01  1.000000

  4 P  9.43900000E+00  0.038109
  4 P  2.00200000E+00  0.209480
  4 P  5.45600000E-01  0.508557

  5 P  1.51700000E-01  1.000000

  6 D  5.50000000E-01  1.000000

  H (Hydrogen)
  ------------
            Exponent  Coefficients 
       -------------- ---------------------------------------------------------
  1 S  1.30100000E+01  0.019685
  1 S  1.96200000E+00  0.137977
  1 S  4.44600000E-01  0.478148

  2 S  1.22000000E-01  1.000000

  3 P  7.27000000E-01  1.000000



 Summary of "ao basis" -> "ao basis" (spherical)
 ------------------------------------------------------------------------------
       Tag                 Description            Shells   Functions and Types
 ---------------- ------------------------------  ------  ---------------------
 O                          cc-pVDZ                  6       14   3s2p1d
 C                          cc-pVDZ                  6       14   3s2p1d
 H                          cc-pVDZ                  3        5   2s1p


                                 NWChem SCF Module
                                 -----------------


                                   diethylether



  ao basis        = "ao basis"
  functions       =   120
  atoms           =    15
  closed shells   =    21
  open shells     =     0
  charge          =   0.00
  wavefunction    = RHF 
  input vectors   = atomic
  output vectors  = ./molecule.movecs
  use symmetry    = T
  symmetry adapt  = T


 Summary of "ao basis" -> "ao basis" (spherical)
 ------------------------------------------------------------------------------
       Tag                 Description            Shells   Functions and Types
 ---------------- ------------------------------  ------  ---------------------
 O                          cc-pVDZ                  6       14   3s2p1d
 C                          cc-pVDZ                  6       14   3s2p1d
 H                          cc-pVDZ                  3        5   2s1p


      Symmetry analysis of basis
      --------------------------

        a1         41
        a2         20
        b1         37
        b2         22


 Forming initial guess at       0.1s


      Superposition of Atomic Density Guess
      -------------------------------------

 Sum of atomic energies:        -230.42104555

      Non-variational initial energy
      ------------------------------

 Total energy =    -233.741655
 1-e energy   =    -688.067299
 2-e energy   =     263.487841
 HOMO         =      -0.326991
 LUMO         =       0.107344


      Symmetry analysis of molecular orbitals - initial
      -------------------------------------------------

  Numbering of irreducible representations: 

     1 a1          2 a2          3 b1          4 b2      

  Orbital symmetries:

     1 a1          2 b1          3 a1          4 a1          5 b1      
     6 a1          7 b1          8 a1          9 b1         10 a1      
    11 b1         12 b2         13 a1         14 a2         15 a1      
    16 b2         17 b1         18 b1         19 a1         20 a2      
    21 b2         22 a1         23 b1         24 a1         25 a1      
    26 b2         27 b1         28 a2         29 a1         30 b1      
    31 b2      


 Starting SCF solution at       0.3s



 ----------------------------------------------
         Quadratically convergent ROHF

 Convergence threshold     :          1.000E-04
 Maximum no. of iterations :           30
 Final Fock-matrix accuracy:          1.000E-07
 ----------------------------------------------


 Integral file          = ./molecule.aoints.0
 Record size in doubles =  65536        No. of integs per rec  =  43688
 Max. records in memory =     69        Max. records in file   = 155282
 No. of bits per label  =      8        No. of bits per value  =     64


 #quartets = 4.174D+05 #integrals = 5.140D+06 #direct =  0.0% #cached =100.0%


File balance: exchanges=     3  moved=    23  time=   0.0


              iter       energy          gnorm     gmax       time
             ----- ------------------- --------- --------- --------
                 1     -232.0961896240  9.35D-01  2.21D-01      0.7
                 2     -232.1537516129  3.71D-01  7.21D-02      0.7
                 3     -232.1621427998  2.05D-02  4.43D-03      0.8
                 4     -232.1621799647  3.86D-04  8.15D-05      0.9
                 5     -232.1621799805  2.63D-06  4.88D-07      1.0


       Final RHF  results 
       ------------------ 

         Total SCF energy =   -232.162179980511
      One-electron energy =   -692.820023019941
      Two-electron energy =    269.820039055731
 Nuclear repulsion energy =    190.837803983699

        Time for solution =      0.7s



       Symmetry analysis of molecular orbitals - final
       -----------------------------------------------

  Numbering of irreducible representations: 

     1 a1          2 a2          3 b1          4 b2      

  Orbital symmetries:

     1 a1          2 b1          3 a1          4 b1          5 a1      
     6 a1          7 b1          8 a1          9 b1         10 a1      
    11 b2         12 b1         13 a2         14 a1         15 a1      
    16 b2         17 b1         18 b1         19 a2         20 a1      
    21 b2         22 a1         23 b1         24 a1         25 b2      
    26 a1         27 b1         28 a2         29 b1         30 b2      
    31 a2      

             Final eigenvalues
             -----------------

              1      
    1  -20.5460
    2  -11.2733
    3  -11.2733
    4  -11.2175
    5  -11.2175
    6   -1.3810
    7   -1.0439
    8   -0.9814
    9   -0.8438
   10   -0.8237
   11   -0.6759
   12   -0.6664
   13   -0.6024
   14   -0.5987
   15   -0.5466
   16   -0.5275
   17   -0.5197
   18   -0.4920
   19   -0.4839
   20   -0.4644
   21   -0.4111
   22    0.1863
   23    0.2035
   24    0.2229
   25    0.2328
   26    0.2631
   27    0.2650
   28    0.2732
   29    0.2889
   30    0.2930
   31    0.3051

                       ROHF Final Molecular Orbital Analysis
                       -------------------------------------

 Vector    6  Occ=2.000000D+00  E=-1.381043D+00  Symmetry=a1
              MO Center= -1.4D-17,  4.6D-19, -2.1D-02, r^2= 6.9D-01
   Bfn.  Coefficient  Atom+Function         Bfn.  Coefficient  Atom+Function  
  ----- ------------  ---------------      ----- ------------  ---------------
     3      0.443638   1 O  s                 2      0.403258   1 O  s         

 Vector    7  Occ=2.000000D+00  E=-1.043936D+00  Symmetry=b1
              MO Center= -8.4D-18,  2.2D-19,  4.7D-02, r^2= 4.1D+00
   Bfn.  Coefficient  Atom+Function         Bfn.  Coefficient  Atom+Function  
  ----- ------------  ---------------      ----- ------------  ---------------
    16      0.217239   2 C  s                30     -0.217239   3 C  s         
    44      0.189692   4 C  s                58     -0.189692   5 C  s         
     4     -0.159732   1 O  px        

 Vector    8  Occ=2.000000D+00  E=-9.814195D-01  Symmetry=a1
              MO Center= -8.1D-16, -2.6D-17, -1.5D-01, r^2= 5.7D+00
   Bfn.  Coefficient  Atom+Function         Bfn.  Coefficient  Atom+Function  
  ----- ------------  ---------------      ----- ------------  ---------------
    44      0.234243   4 C  s                58      0.234243   5 C  s         
     3     -0.162628   1 O  s         

 Vector    9  Occ=2.000000D+00  E=-8.437693D-01  Symmetry=b1
              MO Center=  1.7D-15, -9.4D-17, -1.1D-01, r^2= 5.6D+00
   Bfn.  Coefficient  Atom+Function         Bfn.  Coefficient  Atom+Function  
  ----- ------------  ---------------      ----- ------------  ---------------
     4      0.200559   1 O  px               44      0.186703   4 C  s         
    58     -0.186703   5 C  s                16     -0.178754   2 C  s         
    30      0.178754   3 C  s         

 Vector   10  Occ=2.000000D+00  E=-8.237475D-01  Symmetry=a1
              MO Center=  9.9D-17,  4.6D-16,  3.7D-01, r^2= 3.8D+00
   Bfn.  Coefficient  Atom+Function         Bfn.  Coefficient  Atom+Function  
  ----- ------------  ---------------      ----- ------------  ---------------
    16     -0.185946   2 C  s                30     -0.185946   3 C  s         
     3      0.184528   1 O  s                 6     -0.153914   1 O  pz        
    71     -0.150951   6 H  s                76     -0.150951   7 H  s         
    81     -0.150951   8 H  s                86     -0.150951   9 H  s         

 Vector   11  Occ=2.000000D+00  E=-6.759246D-01  Symmetry=b2
              MO Center= -1.0D-16, -6.4D-18,  2.9D-01, r^2= 2.7D+00
   Bfn.  Coefficient  Atom+Function         Bfn.  Coefficient  Atom+Function  
  ----- ------------  ---------------      ----- ------------  ---------------
     5      0.317779   1 O  py               19      0.239102   2 C  py        
    33      0.239102   3 C  py                8      0.208707   1 O  py        

 Vector   12  Occ=2.000000D+00  E=-6.663744D-01  Symmetry=b1
              MO Center=  5.1D-16, -4.3D-17,  3.2D-01, r^2= 3.1D+00
   Bfn.  Coefficient  Atom+Function         Bfn.  Coefficient  Atom+Function  
  ----- ------------  ---------------      ----- ------------  ---------------
     4      0.336669   1 O  px               20      0.224316   2 C  pz        
    34     -0.224316   3 C  pz                7      0.188825   1 O  px        

 Vector   13  Occ=2.000000D+00  E=-6.023651D-01  Symmetry=a2
              MO Center=  9.9D-17, -1.3D-17,  5.9D-02, r^2= 5.1D+00
   Bfn.  Coefficient  Atom+Function         Bfn.  Coefficient  Atom+Function  
  ----- ------------  ---------------      ----- ------------  ---------------
    19      0.227041   2 C  py               33     -0.227041   3 C  py        
    47      0.213564   4 C  py               61     -0.213564   5 C  py        
    71      0.151181   6 H  s                76     -0.151181   7 H  s         
    81      0.151181   8 H  s                86     -0.151181   9 H  s         

 Vector   14  Occ=2.000000D+00  E=-5.986815D-01  Symmetry=a1
              MO Center= -1.6D-15,  2.4D-16, -1.6D-01, r^2= 4.1D+00
   Bfn.  Coefficient  Atom+Function         Bfn.  Coefficient  Atom+Function  
  ----- ------------  ---------------      ----- ------------  ---------------
     6      0.337952   1 O  pz                9      0.230206   1 O  pz        
    18      0.217340   2 C  px               32     -0.217340   3 C  px        
    46     -0.195414   4 C  px               60      0.195414   5 C  px        

 Vector   15  Occ=2.000000D+00  E=-5.466193D-01  Symmetry=a1
              MO Center= -1.5D-15,  1.0D-15, -3.3D-01, r^2= 8.0D+00
   Bfn.  Coefficient  Atom+Function         Bfn.  Coefficient  Atom+Function  
  ----- ------------  ---------------      ----- ------------  ---------------
    91      0.255867  10 H  s               106      0.255867  13 H  s         
    48      0.227324   4 C  pz               62      0.227324   5 C  pz        
    46     -0.188808   4 C  px               60      0.188808   5 C  px        

 Vector   16  Occ=2.000000D+00  E=-5.274810D-01  Symmetry=b2
              MO Center=  1.1D-14,  2.1D-16, -6.2D-01, r^2= 6.0D+00
   Bfn.  Coefficient  Atom+Function         Bfn.  Coefficient  Atom+Function  
  ----- ------------  ---------------      ----- ------------  ---------------
    47      0.279026   4 C  py               61      0.279026   5 C  py        
     5     -0.231786   1 O  py               96     -0.209111  11 H  s         
   101      0.209111  12 H  s               111     -0.209111  14 H  s         
   116      0.209111  15 H  s                 8     -0.170653   1 O  py        

 Vector   17  Occ=2.000000D+00  E=-5.196866D-01  Symmetry=b1
              MO Center= -6.1D-16,  1.0D-16, -2.2D-01, r^2= 7.3D+00
   Bfn.  Coefficient  Atom+Function         Bfn.  Coefficient  Atom+Function  
  ----- ------------  ---------------      ----- ------------  ---------------
    48      0.240052   4 C  pz               62     -0.240052   5 C  pz        
    91      0.229153  10 H  s               106     -0.229153  13 H  s         
     4     -0.167874   1 O  px        

 Vector   18  Occ=2.000000D+00  E=-4.920260D-01  Symmetry=b1
              MO Center=  1.9D-14,  4.1D-16,  3.6D-02, r^2= 4.9D+00
   Bfn.  Coefficient  Atom+Function         Bfn.  Coefficient  Atom+Function  
  ----- ------------  ---------------      ----- ------------  ---------------
    18      0.262421   2 C  px               32      0.262421   3 C  px        
    46     -0.253111   4 C  px               60     -0.253111   5 C  px        
     4     -0.183620   1 O  px               20      0.154473   2 C  pz        
    34     -0.154473   3 C  pz        

 Vector   19  Occ=2.000000D+00  E=-4.838827D-01  Symmetry=a2
              MO Center= -1.4D-14,  2.0D-16,  3.9D-02, r^2= 5.5D+00
   Bfn.  Coefficient  Atom+Function         Bfn.  Coefficient  Atom+Function  
  ----- ------------  ---------------      ----- ------------  ---------------
    19      0.225762   2 C  py               33     -0.225762   3 C  py        
    47     -0.213843   4 C  py               61      0.213843   5 C  py        
    71      0.178668   6 H  s                76     -0.178668   7 H  s         
    81      0.178668   8 H  s                86     -0.178668   9 H  s         
    96      0.174580  11 H  s               101     -0.174580  12 H  s         

 Vector   20  Occ=2.000000D+00  E=-4.643747D-01  Symmetry=a1
              MO Center= -1.5D-14,  7.1D-17,  7.2D-02, r^2= 2.9D+00
   Bfn.  Coefficient  Atom+Function         Bfn.  Coefficient  Atom+Function  
  ----- ------------  ---------------      ----- ------------  ---------------
     6      0.408257   1 O  pz                9      0.329082   1 O  pz        
    20     -0.240426   2 C  pz               34     -0.240426   3 C  pz        
     3     -0.165425   1 O  s         

 Vector   21  Occ=2.000000D+00  E=-4.111151D-01  Symmetry=b2
              MO Center=  6.5D-16, -2.1D-17,  2.9D-01, r^2= 2.3D+00
   Bfn.  Coefficient  Atom+Function         Bfn.  Coefficient  Atom+Function  
  ----- ------------  ---------------      ----- ------------  ---------------
     5      0.500168   1 O  py                8      0.409057   1 O  py        
    71     -0.185735   6 H  s                76      0.185735   7 H  s         
    81      0.185735   8 H  s                86     -0.185735   9 H  s         
    19     -0.171843   2 C  py               33     -0.171843   3 C  py        

 Vector   22  Occ=0.000000D+00  E= 1.863222D-01  Symmetry=a1
              MO Center=  3.8D-16,  8.6D-17,  7.6D-01, r^2= 7.9D+00
   Bfn.  Coefficient  Atom+Function         Bfn.  Coefficient  Atom+Function  
  ----- ------------  ---------------      ----- ------------  ---------------
    17      1.074567   2 C  s                31      1.074567   3 C  s         
    45      0.805930   4 C  s                59      0.805930   5 C  s         
    72     -0.717266   6 H  s                77     -0.717266   7 H  s         
    82     -0.717266   8 H  s                87     -0.717266   9 H  s         
    23      0.487490   2 C  pz               37      0.487490   3 C  pz        

 Vector   23  Occ=0.000000D+00  E= 2.035038D-01  Symmetry=b1
              MO Center=  1.7D-15, -5.6D-17,  5.0D-02, r^2= 1.2D+01
   Bfn.  Coefficient  Atom+Function         Bfn.  Coefficient  Atom+Function  
  ----- ------------  ---------------      ----- ------------  ---------------
    45      1.302248   4 C  s                59     -1.302248   5 C  s         
    92     -0.799989  10 H  s               107      0.799989  13 H  s         
    17      0.741646   2 C  s                31     -0.741646   3 C  s         
    97     -0.508560  11 H  s               102     -0.508560  12 H  s         
   112      0.508560  14 H  s               117      0.508560  15 H  s         

 Vector   24  Occ=0.000000D+00  E= 2.229071D-01  Symmetry=a1
              MO Center= -8.4D-16, -3.7D-16, -2.8D-01, r^2= 1.1D+01
   Bfn.  Coefficient  Atom+Function         Bfn.  Coefficient  Atom+Function  
  ----- ------------  ---------------      ----- ------------  ---------------
    45      1.476505   4 C  s                59      1.476505   5 C  s         
    17     -0.869259   2 C  s                31     -0.869259   3 C  s         
    97     -0.743958  11 H  s               102     -0.743958  12 H  s         
   112     -0.743958  14 H  s               117     -0.743958  15 H  s         
    72      0.529084   6 H  s                77      0.529084   7 H  s         

 Vector   25  Occ=0.000000D+00  E= 2.328100D-01  Symmetry=b2
              MO Center=  3.4D-16,  4.7D-16,  4.6D-01, r^2= 8.3D+00
   Bfn.  Coefficient  Atom+Function         Bfn.  Coefficient  Atom+Function  
  ----- ------------  ---------------      ----- ------------  ---------------
    72      0.926664   6 H  s                77     -0.926664   7 H  s         
    82     -0.926664   8 H  s                87      0.926664   9 H  s         
    97     -0.725708  11 H  s               102      0.725708  12 H  s         
   112     -0.725708  14 H  s               117      0.725708  15 H  s         
    22     -0.693552   2 C  py               36     -0.693552   3 C  py        

 Vector   26  Occ=0.000000D+00  E= 2.630988D-01  Symmetry=a1
              MO Center=  4.5D-15,  1.7D-16, -8.4D-03, r^2= 1.4D+01
   Bfn.  Coefficient  Atom+Function         Bfn.  Coefficient  Atom+Function  
  ----- ------------  ---------------      ----- ------------  ---------------
    92      1.572766  10 H  s               107      1.572766  13 H  s         
    51     -0.779893   4 C  pz               65     -0.779893   5 C  pz        
    49      0.695042   4 C  px               63     -0.695042   5 C  px        
    97     -0.655981  11 H  s               102     -0.655981  12 H  s         
   112     -0.655981  14 H  s               117     -0.655981  15 H  s         

 Vector   27  Occ=0.000000D+00  E= 2.650436D-01  Symmetry=b1
              MO Center= -1.2D-15, -1.5D-16, -4.2D-01, r^2= 1.1D+01
   Bfn.  Coefficient  Atom+Function         Bfn.  Coefficient  Atom+Function  
  ----- ------------  ---------------      ----- ------------  ---------------
    97      0.939280  11 H  s               102      0.939280  12 H  s         
   112     -0.939280  14 H  s               117     -0.939280  15 H  s         
    92     -0.882793  10 H  s               107      0.882793  13 H  s         
    17      0.840239   2 C  s                31     -0.840239   3 C  s         
    45     -0.731337   4 C  s                59      0.731337   5 C  s         

 Vector   28  Occ=0.000000D+00  E= 2.732275D-01  Symmetry=a2
              MO Center= -2.0D-15,  1.4D-16, -5.0D-01, r^2= 9.9D+00
   Bfn.  Coefficient  Atom+Function         Bfn.  Coefficient  Atom+Function  
  ----- ------------  ---------------      ----- ------------  ---------------
    97      1.066645  11 H  s               102     -1.066645  12 H  s         
   112     -1.066645  14 H  s               117      1.066645  15 H  s         
    72     -0.773428   6 H  s                77      0.773428   7 H  s         
    82     -0.773428   8 H  s                87      0.773428   9 H  s         
    50      0.736582   4 C  py               64     -0.736582   5 C  py        

 Vector   29  Occ=0.000000D+00  E= 2.889394D-01  Symmetry=b1
              MO Center= -6.9D-15,  3.9D-16,  8.1D-01, r^2= 1.1D+01
   Bfn.  Coefficient  Atom+Function         Bfn.  Coefficient  Atom+Function  
  ----- ------------  ---------------      ----- ------------  ---------------
    17      1.356693   2 C  s                31     -1.356693   3 C  s         
    92      1.248768  10 H  s               107     -1.248768  13 H  s         
    72     -0.930813   6 H  s                77     -0.930813   7 H  s         
    82      0.930813   8 H  s                87      0.930813   9 H  s         
    45     -0.739465   4 C  s                59      0.739465   5 C  s         

 Vector   30  Occ=0.000000D+00  E= 2.930057D-01  Symmetry=b2
              MO Center= -2.7D-15, -8.1D-16, -3.0D-01, r^2= 9.7D+00
   Bfn.  Coefficient  Atom+Function         Bfn.  Coefficient  Atom+Function  
  ----- ------------  ---------------      ----- ------------  ---------------
    97      1.109228  11 H  s               102     -1.109228  12 H  s         
   112      1.109228  14 H  s               117     -1.109228  15 H  s         
    50      0.992960   4 C  py               64      0.992960   5 C  py        
    22     -0.807115   2 C  py               36     -0.807115   3 C  py        
    72      0.805639   6 H  s                77     -0.805639   7 H  s         

 Vector   31  Occ=0.000000D+00  E= 3.050671D-01  Symmetry=a2
              MO Center=  2.3D-15,  3.1D-16,  5.6D-01, r^2= 8.5D+00
   Bfn.  Coefficient  Atom+Function         Bfn.  Coefficient  Atom+Function  
  ----- ------------  ---------------      ----- ------------  ---------------
    72      1.266255   6 H  s                77     -1.266255   7 H  s         
    82      1.266255   8 H  s                87     -1.266255   9 H  s         
    22     -1.054237   2 C  py               36      1.054237   3 C  py        
    50      0.807371   4 C  py               64     -0.807371   5 C  py        
    97      0.790523  11 H  s               102     -0.790523  12 H  s         

 Vector   32  Occ=0.000000D+00  E= 3.357660D-01  Symmetry=a1
              MO Center= -4.0D-14,  7.6D-15,  5.7D-01, r^2= 4.2D+00
   Bfn.  Coefficient  Atom+Function         Bfn.  Coefficient  Atom+Function  
  ----- ------------  ---------------      ----- ------------  ---------------
     3      1.327266   1 O  s                21     -0.943651   2 C  px        
    35      0.943651   3 C  px                9      0.483500   1 O  pz        
    51     -0.398217   4 C  pz               65     -0.398217   5 C  pz        
    17     -0.275281   2 C  s                31     -0.275281   3 C  s         
    45     -0.269432   4 C  s                59     -0.269432   5 C  s         

 Vector   33  Occ=0.000000D+00  E= 3.792824D-01  Symmetry=a1
              MO Center= -1.3D-15, -5.2D-17, -3.9D-02, r^2= 7.0D+00
   Bfn.  Coefficient  Atom+Function         Bfn.  Coefficient  Atom+Function  
  ----- ------------  ---------------      ----- ------------  ---------------
    17      1.453743   2 C  s                31      1.453743   3 C  s         
    49     -1.269051   4 C  px               63      1.269051   5 C  px        
    23     -1.169900   2 C  pz               37     -1.169900   3 C  pz        
    45     -1.038714   4 C  s                59     -1.038714   5 C  s         
    51     -0.786898   4 C  pz               65     -0.786898   5 C  pz        

 Vector   34  Occ=0.000000D+00  E= 4.294955D-01  Symmetry=b1
              MO Center=  9.9D-15,  1.6D-16, -1.5D-01, r^2= 7.6D+00
   Bfn.  Coefficient  Atom+Function         Bfn.  Coefficient  Atom+Function  
  ----- ------------  ---------------      ----- ------------  ---------------
    21      1.803185   2 C  px               35      1.803185   3 C  px        
    45      1.156013   4 C  s                51      1.150620   4 C  pz        
    59     -1.156013   5 C  s                65     -1.150620   5 C  pz        
    49      1.056473   4 C  px               63      1.056473   5 C  px        
    17     -0.813028   2 C  s                31      0.813028   3 C  s         

 Vector   35  Occ=0.000000D+00  E= 4.397758D-01  Symmetry=b1
              MO Center=  2.6D-14, -1.5D-15,  2.0D-01, r^2= 6.4D+00
   Bfn.  Coefficient  Atom+Function         Bfn.  Coefficient  Atom+Function  
  ----- ------------  ---------------      ----- ------------  ---------------
    23      1.663666   2 C  pz               37     -1.663666   3 C  pz        
    17     -1.449327   2 C  s                31      1.449327   3 C  s         
    49      1.122142   4 C  px               63      1.122142   5 C  px        
     7     -1.073262   1 O  px               45      0.956360   4 C  s         
    59     -0.956360   5 C  s                72     -0.501671   6 H  s         

 Vector   36  Occ=0.000000D+00  E= 5.901339D-01  Symmetry=a1
              MO Center=  7.2D-14, -1.6D-14,  5.4D-02, r^2= 7.0D+00
   Bfn.  Coefficient  Atom+Function         Bfn.  Coefficient  Atom+Function  
  ----- ------------  ---------------      ----- ------------  ---------------
    51     -0.751337   4 C  pz               65     -0.751337   5 C  pz        
    23      0.741054   2 C  pz               37      0.741054   3 C  pz        
     3      0.354491   1 O  s                17      0.303072   2 C  s         
    31      0.303072   3 C  s                20     -0.283595   2 C  pz        
    34     -0.283595   3 C  pz               48      0.261798   4 C  pz        


 center of mass
 --------------
 x =  -0.00000000 y =   0.00000000 z =  -0.01784680

 moments of inertia (a.u.)
 ------------------
         100.339244215766           0.000000000000           0.000000000000
           0.000000000000         850.892250784291           0.000000000000
           0.000000000000           0.000000000000         795.509023781260

  Mulliken analysis of the total density
  --------------------------------------

    Atom       Charge   Shell Charges
 -----------   ------   -------------------------------------------------------
    1 O    8     8.48   2.00  0.82  0.96  2.85  1.83  0.02
    2 C    6     5.84   2.00  0.67  0.35  1.97  0.71  0.13
    3 C    6     5.84   2.00  0.67  0.35  1.97  0.71  0.13
    4 C    6     6.04   2.00  0.65  0.38  2.04  0.91  0.06
    5 C    6     6.04   2.00  0.65  0.38  2.04  0.91  0.06
    6 H    1     0.99   0.77  0.19  0.03
    7 H    1     0.99   0.77  0.19  0.03
    8 H    1     0.99   0.77  0.19  0.03
    9 H    1     0.99   0.77  0.19  0.03
   10 H    1     0.98   0.76  0.19  0.03
   11 H    1     0.96   0.75  0.18  0.03
   12 H    1     0.96   0.75  0.18  0.03
   13 H    1     0.98   0.76  0.19  0.03
   14 H    1     0.96   0.75  0.18  0.03
   15 H    1     0.96   0.75  0.18  0.03

       Multipole analysis of the density wrt the origin
       ------------------------------------------------

     L   x y z        total         open         nuclear
     -   - - -        -----         ----         -------
     0   0 0 0     -0.000000      0.000000     42.000000

     1   1 0 0     -0.000000      0.000000      0.000000
     1   0 1 0     -0.000000      0.000000      0.000000
     1   0 0 1      0.464514      0.000000     -0.000000

     2   2 0 0    -23.087695      0.000000    473.987319
     2   1 1 0      0.000000      0.000000      0.000000
     2   1 0 1     -0.000000      0.000000      0.000000
     2   0 2 0    -24.541801      0.000000     22.303484
     2   0 1 1      0.000000      0.000000      0.000000
     2   0 0 2    -24.983097      0.000000     56.750297


 Parallel integral file used     120 records with       0 large values


 Task  times  cpu:        1.0s     wall:        1.0s


                                NWChem Input Module
                                -------------------


 Summary of allocated global arrays
-----------------------------------
  No active global arrays


MA_summarize_allocated_blocks: starting scan ...
MA_summarize_allocated_blocks: scan completed: 0 heap blocks, 0 stack blocks
MA usage statistics:

	allocation statistics:
					      heap	     stack
					      ----	     -----
	current number of blocks	         0	         0
	maximum number of blocks	        18	        14
	current total bytes		         0	         0
	maximum total bytes		  36276664	  22512232
	maximum total K-bytes		     36277	     22513
	maximum total M-bytes		        37	        23


                                     CITATION
                                     --------
                Please cite the following reference when publishing
                           results obtained with NWChem:

          E. Apra, E. J. Bylaska, W. A. de Jong, N. Govind, K. Kowalski,
       T. P. Straatsma, M. Valiev, H. J. J. van Dam, Y. Alexeev, J. Anchell,
       V. Anisimov, F. W. Aquino, R. Atta-Fynn, J. Autschbach, N. P. Bauman,
     J. C. Becca, D. E. Bernholdt, K. Bhaskaran-Nair, S. Bogatko, P. Borowski,
         J. Boschen, J. Brabec, A. Bruner, E. Cauet, Y. Chen, G. N. Chuev,
      C. J. Cramer, J. Daily, M. J. O. Deegan, T. H. Dunning Jr., M. Dupuis,
   K. G. Dyall, G. I. Fann, S. A. Fischer, A. Fonari, H. Fruchtl, L. Gagliardi,
      J. Garza, N. Gawande, S. Ghosh, K. Glaesemann, A. W. Gotz, J. Hammond,
       V. Helms, E. D. Hermes, K. Hirao, S. Hirata, M. Jacquelin, L. Jensen,
   B. G. Johnson, H. Jonsson, R. A. Kendall, M. Klemm, R. Kobayashi, V. Konkov,
      S. Krishnamoorthy, M. Krishnan, Z. Lin, R. D. Lins, R. J. Littlefield,
      A. J. Logsdail, K. Lopata, W. Ma, A. V. Marenich, J. Martin del Campo,
   D. Mejia-Rodriguez, J. E. Moore, J. M. Mullin, T. Nakajima, D. R. Nascimento,
    J. A. Nichols, P. J. Nichols, J. Nieplocha, A. Otero-de-la-Roza, B. Palmer,
    A. Panyala, T. Pirojsirikul, B. Peng, R. Peverati, J. Pittner, L. Pollack,
   R. M. Richard, P. Sadayappan, G. C. Schatz, W. A. Shelton, D. W. Silverstein,
   D. M. A. Smith, T. A. Soares, D. Song, M. Swart, H. L. Taylor, G. S. Thomas,
            V. Tipparaju, D. G. Truhlar, K. Tsemekhman, T. Van Voorhis,
      A. Vazquez-Mayagoitia, P. Verma, O. Villa, A. Vishnu, K. D. Vogiatzis,
        D. Wang, J. H. Weare, M. J. Williamson, T. L. Windus, K. Wolinski,
        A. T. Wong, Q. Wu, C. Yang, Q. Yu, M. Zacharias, Z. Zhang, Y. Zhao,
                                and R. J. Harrison
                        "NWChem: Past, present, and future
                         J. Chem. Phys. 152, 184102 (2020)
                               doi:10.1063/5.0004997

                                      AUTHORS
                                      -------
  E. Apra, E. J. Bylaska, N. Govind, K. Kowalski, M. Valiev, D. Mejia-Rodriguez,
       A. Kunitsa, N. P. Bauman, A. Panyala, W. A. de Jong, T. P. Straatsma,
   H. J. J. van Dam, D. Wang, T. L. Windus, J. Hammond, J. Autschbach, A. Woods,
    K. Bhaskaran-Nair, J. Brabec, K. Lopata, S. A. Fischer, S. Krishnamoorthy,
     M. Jacquelin, W. Ma, M. Klemm, O. Villa, Y. Chen, V. Anisimov, F. Aquino,
     S. Hirata, M. T. Hackler, E. Hermes, L. Jensen, J. E. Moore, J. C. Becca,
      V. Konjkov, T. Risthaus, M. Malagoli, A. Marenich, A. Otero-de-la-Roza,
        J. Mullin, P. Nichols, R. Peverati, J. Pittner, Y. Zhao, P.-D. Fan,
        A. Fonari, M. J. Williamson, R. J. Harrison, J. R. Rehr, M. Dupuis,
     D. Silverstein, D. M. A. Smith, J. Nieplocha, V. Tipparaju, M. Krishnan,
     B. E. Van Kuiken, A. Vazquez-Mayagoitia, M. Swart, Q. Wu, T. Van Voorhis,
     A. A. Auer, M. Nooijen, L. D. Crosby, E. Brown, G. Cisneros, G. I. Fann,
   H. Fruchtl, J. Garza, K. Hirao, R. A. Kendall, J. A. Nichols, K. Tsemekhman,
    K. Wolinski, J. Anchell, D. E. Bernholdt, P. Borowski, T. Clark, D. Clerc,
   H. Dachsel, M. J. O. Deegan, K. Dyall, D. Elwood, E. Glendening, M. Gutowski,
   A. C. Hess, J. Jaffe, B. G. Johnson, J. Ju, R. Kobayashi, R. Kutteh, Z. Lin,
   R. Littlefield, X. Long, B. Meng, T. Nakajima, S. Niu, L. Pollack, M. Rosing,
   K. Glaesemann, G. Sandrone, M. Stave, H. Taylor, G. Thomas, J. H. van Lenthe,
                               A. T. Wong, Z. Zhang.

 Total times  cpu:        1.0s     wall:        1.0s
