 argument  1 = CO_example.txt



============================== echo of input deck ==============================
echo

start molecule

title "CO"
memory total 2 gb

charge 0
geometry units angstrom print xyz
 C 0.00000 0.00000 0.00000
 O 0.00000 0.00000 0.75
end

basis spherical
 * library cc-pVDZ
end

task scf optimize
================================================================================


                                         
                                         


             Northwest Computational Chemistry Package (NWChem) 7.2.2
             --------------------------------------------------------


                    Environmental Molecular Sciences Laboratory
                       Pacific Northwest National Laboratory
                                Richland, WA 99352

                              Copyright (c) 1994-2022
                       Pacific Northwest National Laboratory
                            Battelle Memorial Institute

             NWChem is an open-source computational chemistry package
                        distributed under the terms of the
                      Educational Community License (ECL) 2.0
             A copy of the license is included with this distribution
                              in the LICENSE.TXT file

                                  ACKNOWLEDGMENT
                                  --------------

            This software and its documentation were developed at the
            EMSL at Pacific Northwest National Laboratory, a multiprogram
            national laboratory, operated for the U.S. Department of Energy
            by Battelle under Contract Number DE-AC05-76RL01830. Support
            for this work was provided by the Department of Energy Office
            of Biological and Environmental Research, Office of Basic
            Energy Sciences, and the Office of Advanced Scientific Computing.


           Job information
           ---------------

    hostname        = Eliass-MacBook-Air.local
    program         = nwchem
    date            = Sun Feb 11 18:26:49 2024

    compiled        = Sun_Dec_10_10:51:21_2023
    source          = /private/tmp/nwchem-20231210-5888-3uvdjr/nwchem-7.2.2
    nwchem branch   = 7.2.2
    nwchem revision = 74936fb9
    ga revision     = 5.8.0
    use scalapack   = T
    input           = CO_example.txt
    prefix          = molecule.
    data base       = ./molecule.db
    status          = startup
    nproc           =        4
    time left       =     -1s



           Memory information
           ------------------

    heap     =   67108860 doubles =    512.0 Mbytes
    stack    =   67108865 doubles =    512.0 Mbytes
    global   =  134217728 doubles =   1024.0 Mbytes (distinct from heap & stack)
    total    =  268435453 doubles =   2048.0 Mbytes
    verify   = yes
    hardfail = no 


           Directory information
           ---------------------

  0 permanent = .
  0 scratch   = .




                                NWChem Input Module
                                -------------------


                                        CO
                                        --

 Scaling coordinates for geometry "geometry" by  1.889725989
 (inverse scale =  0.529177249)

 ORDER OF PRIMARY AXIS IS BEING SET TO 4
 C4V symmetry detected

          ------
          auto-z
          ------
  no constraints, skipping    0.0000000000000000     
  no constraints, skipping    0.0000000000000000     


                             Geometry "geometry" -> ""
                             -------------------------

 Output coordinates in angstroms (scale by  1.889725989 to convert to a.u.)

  No.       Tag          Charge          X              Y              Z
 ---- ---------------- ---------- -------------- -------------- --------------
    1 C                    6.0000     0.00000000     0.00000000    -0.42857143
    2 O                    8.0000     0.00000000     0.00000000     0.32142857

      Atomic Mass 
      ----------- 

      C                 12.000000
      O                 15.994910


 Effective nuclear repulsion energy (a.u.)      33.8673439360

            Nuclear Dipole moment (a.u.) 
            ----------------------------
        X                 Y               Z
 ---------------- ---------------- ----------------
     0.0000000000     0.0000000000    -0.0000000000

      Symmetry information
      --------------------

 Group name             C4v       
 Group number             18
 Group order               8
 No. of unique centers     2

      Symmetry unique atoms

     1    2



                                Z-matrix (autoz)
                                -------- 

 Units are Angstrom for bonds and degrees for angles

      Type          Name      I     J     K     L     M      Value
      ----------- --------  ----- ----- ----- ----- ----- ----------
    1 Stretch                  1     2                       0.75000


            XYZ format geometry
            -------------------
     2
 geometry
 C                     0.00000000     0.00000000    -0.42857143
 O                     0.00000000     0.00000000     0.32142857

 ==============================================================================
                                internuclear distances
 ------------------------------------------------------------------------------
       center one      |      center two      | atomic units |  angstroms
 ------------------------------------------------------------------------------
    2 O                |   1 C                |     1.41729  |     0.75000
 ------------------------------------------------------------------------------
                         number of included internuclear distances:          1
 ==============================================================================



  library name resolved from: .nwchemrc
  library file name is: </opt/homebrew/Cellar/nwchem/7.2.2/share/nwchem/libraries/>
  


 Summary of "ao basis" -> "" (spherical)
 ------------------------------------------------------------------------------
       Tag                 Description            Shells   Functions and Types
 ---------------- ------------------------------  ------  ---------------------
 *                          cc-pVDZ                   on all atoms 




                           NWChem Geometry Optimization
                           ----------------------------




                                        CO


  no constraints, skipping    0.0000000000000000     
 maximum gradient threshold         (gmax) =   0.000450
 rms gradient threshold             (grms) =   0.000300
 maximum cartesian step threshold   (xmax) =   0.001800
 rms cartesian step threshold       (xrms) =   0.001200
 fixed trust radius                (trust) =   0.300000
 maximum step size to saddle      (sadstp) =   0.100000
 energy precision                  (eprec) =   1.0D-07
 maximum number of steps          (nptopt) =   40
 initial hessian option           (inhess) =    0
 line search option               (linopt) =    1
 hessian update option            (modupd) =    1
 saddle point option              (modsad) =    0
 initial eigen-mode to follow     (moddir) =    0
 initial variable to follow       (vardir) =    0
 follow first negative mode     (firstneg) =    T
 apply conjugacy                    (opcg) =    F
 source of zmatrix                         =   autoz   


          -------------------
          Energy Minimization
          -------------------


 Names of Z-matrix variables 
    1         

 Variables with the same non-blank name are constrained to be equal


 Using diagonal initial Hessian 
 Scaling for Hessian diagonals: bonds = 1.00  angles = 0.25  torsions = 0.10

          --------
          Step   0
          --------


                         Geometry "geometry" -> "geometry"
                         ---------------------------------

 Output coordinates in angstroms (scale by  1.889725989 to convert to a.u.)

  No.       Tag          Charge          X              Y              Z
 ---- ---------------- ---------- -------------- -------------- --------------
    1 C                    6.0000     0.00000000     0.00000000    -0.42857143
    2 O                    8.0000     0.00000000     0.00000000     0.32142857

      Atomic Mass 
      ----------- 

      C                 12.000000
      O                 15.994910


 Effective nuclear repulsion energy (a.u.)      33.8673439360

            Nuclear Dipole moment (a.u.) 
            ----------------------------
        X                 Y               Z
 ---------------- ---------------- ----------------
     0.0000000000     0.0000000000    -0.0000000000

      Symmetry information
      --------------------

 Group name             C4v       
 Group number             18
 Group order               8
 No. of unique centers     2

      Symmetry unique atoms

     1    2

                      Basis "ao basis" -> "ao basis" (spherical)
                      -----
  C (Carbon)
  ----------
            Exponent  Coefficients 
       -------------- ---------------------------------------------------------
  1 S  6.66500000E+03  0.000692
  1 S  1.00000000E+03  0.005329
  1 S  2.28000000E+02  0.027077
  1 S  6.47100000E+01  0.101718
  1 S  2.10600000E+01  0.274740
  1 S  7.49500000E+00  0.448564
  1 S  2.79700000E+00  0.285074
  1 S  5.21500000E-01  0.015204

  2 S  6.66500000E+03 -0.000146
  2 S  1.00000000E+03 -0.001154
  2 S  2.28000000E+02 -0.005725
  2 S  6.47100000E+01 -0.023312
  2 S  2.10600000E+01 -0.063955
  2 S  7.49500000E+00 -0.149981
  2 S  2.79700000E+00 -0.127262
  2 S  5.21500000E-01  0.544529

  3 S  1.59600000E-01  1.000000

  4 P  9.43900000E+00  0.038109
  4 P  2.00200000E+00  0.209480
  4 P  5.45600000E-01  0.508557

  5 P  1.51700000E-01  1.000000

  6 D  5.50000000E-01  1.000000

  O (Oxygen)
  ----------
            Exponent  Coefficients 
       -------------- ---------------------------------------------------------
  1 S  1.17200000E+04  0.000710
  1 S  1.75900000E+03  0.005470
  1 S  4.00800000E+02  0.027837
  1 S  1.13700000E+02  0.104800
  1 S  3.70300000E+01  0.283062
  1 S  1.32700000E+01  0.448719
  1 S  5.02500000E+00  0.270952
  1 S  1.01300000E+00  0.015458

  2 S  1.17200000E+04 -0.000160
  2 S  1.75900000E+03 -0.001263
  2 S  4.00800000E+02 -0.006267
  2 S  1.13700000E+02 -0.025716
  2 S  3.70300000E+01 -0.070924
  2 S  1.32700000E+01 -0.165411
  2 S  5.02500000E+00 -0.116955
  2 S  1.01300000E+00  0.557368

  3 S  3.02300000E-01  1.000000

  4 P  1.77000000E+01  0.043018
  4 P  3.85400000E+00  0.228913
  4 P  1.04600000E+00  0.508728

  5 P  2.75300000E-01  1.000000

  6 D  1.18500000E+00  1.000000



 Summary of "ao basis" -> "ao basis" (spherical)
 ------------------------------------------------------------------------------
       Tag                 Description            Shells   Functions and Types
 ---------------- ------------------------------  ------  ---------------------
 C                          cc-pVDZ                  6       14   3s2p1d
 O                          cc-pVDZ                  6       14   3s2p1d


                                 NWChem SCF Module
                                 -----------------


                                        CO



  ao basis        = "ao basis"
  functions       =    28
  atoms           =     2
  closed shells   =     7
  open shells     =     0
  charge          =   0.00
  wavefunction    = RHF 
  input vectors   = atomic
  output vectors  = ./molecule.movecs
  use symmetry    = T
  symmetry adapt  = T


 Summary of "ao basis" -> "ao basis" (spherical)
 ------------------------------------------------------------------------------
       Tag                 Description            Shells   Functions and Types
 ---------------- ------------------------------  ------  ---------------------
 C                          cc-pVDZ                  6       14   3s2p1d
 O                          cc-pVDZ                  6       14   3s2p1d


      Symmetry analysis of basis
      --------------------------

        a1         12
        a2          0
        b1          2
        b2          2
        e          12


 Forming initial guess at       0.1s


      Superposition of Atomic Density Guess
      -------------------------------------

 Sum of atomic energies:        -112.42981721

      Non-variational initial energy
      ------------------------------

 Total energy =    -113.915452
 1-e energy   =    -215.903766
 2-e energy   =      68.120970
 HOMO         =      -0.464497
 LUMO         =       0.174217


      Symmetry analysis of molecular orbitals - initial
      -------------------------------------------------


 !! scf_movecs_sym_adapt:    4 vectors were symmetry contaminated

  Symmetry fudging

 !! scf_movecs_sym_adapt:    4 vectors were symmetry contaminated

  Numbering of irreducible representations: 

     1 a1          2 a2          3 b1          4 b2          5 e       

  Orbital symmetries:

     1 a1          2 a1          3 a1          4 e           5 e       
     6 a1          7 a1          8 e           9 e          10 a1      
    11 e          12 e          13 a1         14 a1         15 e       
    16 e          17 b1      


 Starting SCF solution at       0.1s



 ----------------------------------------------
         Quadratically convergent ROHF

 Convergence threshold     :          1.000E-04
 Maximum no. of iterations :           30
 Final Fock-matrix accuracy:          1.000E-07
 ----------------------------------------------


 #quartets = 3.081D+03 #integrals = 2.185D+04 #direct =  0.0% #cached =100.0%


 Integral file          = ./molecule.aoints.0
 Record size in doubles =  65536        No. of integs per rec  =  43688
 Max. records in memory =      3        Max. records in file   = 160201
 No. of bits per label  =      8        No. of bits per value  =     64


File balance: exchanges=     0  moved=     0  time=   0.0


              iter       energy          gnorm     gmax       time
             ----- ------------------- --------- --------- --------
                 1     -111.8162556776  7.91D-01  2.24D-01      0.2
                 2     -111.8400685692  1.75D-01  6.90D-02      0.2
                 3     -111.8418941546  6.11D-03  2.69D-03      0.2
                 4     -111.8418975718  7.09D-06  3.08D-06      0.2


       Final RHF  results 
       ------------------ 

         Total SCF energy =   -111.841897571821
      One-electron energy =   -218.002210097072
      Two-electron energy =     72.292968589270
 Nuclear repulsion energy =     33.867343935981

        Time for solution =      0.0s



       Symmetry analysis of molecular orbitals - final
       -----------------------------------------------

  Numbering of irreducible representations: 

     1 a1          2 a2          3 b1          4 b2          5 e       

  Orbital symmetries:

     1 a1          2 a1          3 a1          4 e           5 e       
     6 a1          7 a1          8 e           9 e          10 a1      
    11 a1         12 e          13 e          14 a1         15 e       
    16 e          17 b2      

             Final eigenvalues
             -----------------

              1      
    1  -20.6633
    2  -11.2755
    3   -1.7381
    4   -0.8684
    5   -0.8684
    6   -0.8128
    7   -0.4817
    8    0.3131
    9    0.3131
   10    0.4028
   11    0.7003
   12    0.7162
   13    0.7162
   14    1.0470
   15    1.1885
   16    1.1885
   17    1.3438

                       ROHF Final Molecular Orbital Analysis
                       -------------------------------------

 Vector    2  Occ=2.000000D+00  E=-1.127550D+01  Symmetry=a1
              MO Center= -1.6D-19,  4.5D-19, -4.3D-01, r^2= 2.8D-02
   Bfn.  Coefficient  Atom+Function         Bfn.  Coefficient  Atom+Function  
  ----- ------------  ---------------      ----- ------------  ---------------
     1      0.998743  1 C  s          

 Vector    3  Occ=2.000000D+00  E=-1.738138D+00  Symmetry=a1
              MO Center=  1.5D-17, -1.3D-18,  6.7D-02, r^2= 3.1D-01
   Bfn.  Coefficient  Atom+Function         Bfn.  Coefficient  Atom+Function  
  ----- ------------  ---------------      ----- ------------  ---------------
    16      0.411199  2 O  s                  6      0.311901  1 C  pz         
    20     -0.269991  2 O  pz                 2      0.260713  1 C  s          

 Vector    4  Occ=2.000000D+00  E=-8.683752D-01  Symmetry=e
              MO Center=  9.2D-17,  2.9D-17,  8.8D-02, r^2= 5.4D-01
   Bfn.  Coefficient  Atom+Function         Bfn.  Coefficient  Atom+Function  
  ----- ------------  ---------------      ----- ------------  ---------------
    18      0.548172  2 O  px                 4      0.359910  1 C  px         
    21      0.216433  2 O  px         

 Vector    5  Occ=2.000000D+00  E=-8.683752D-01  Symmetry=e
              MO Center=  6.1D-17,  4.9D-17,  8.8D-02, r^2= 5.4D-01
   Bfn.  Coefficient  Atom+Function         Bfn.  Coefficient  Atom+Function  
  ----- ------------  ---------------      ----- ------------  ---------------
    19      0.548172  2 O  py                 5      0.359910  1 C  py         
    22      0.216433  2 O  py         

 Vector    6  Occ=2.000000D+00  E=-8.127908D-01  Symmetry=a1
              MO Center= -4.3D-17, -9.0D-17,  5.9D-01, r^2= 3.9D-01
   Bfn.  Coefficient  Atom+Function         Bfn.  Coefficient  Atom+Function  
  ----- ------------  ---------------      ----- ------------  ---------------
    20      0.626975  2 O  pz                17      0.502158  2 O  s          
    23      0.247252  2 O  pz                 6     -0.232835  1 C  pz         
    16      0.199789  2 O  s          

 Vector    7  Occ=2.000000D+00  E=-4.816802D-01  Symmetry=a1
              MO Center= -7.4D-17,  1.5D-16, -8.6D-01, r^2= 7.6D-01
   Bfn.  Coefficient  Atom+Function         Bfn.  Coefficient  Atom+Function  
  ----- ------------  ---------------      ----- ------------  ---------------
     3      0.614598  1 C  s                  6     -0.429254  1 C  pz         
     2      0.298291  1 C  s                  9     -0.194765  1 C  pz         

 Vector    8  Occ=0.000000D+00  E= 3.130632D-01  Symmetry=e
              MO Center=  5.3D-17, -7.5D-17, -6.1D-01, r^2= 2.3D+00
   Bfn.  Coefficient  Atom+Function         Bfn.  Coefficient  Atom+Function  
  ----- ------------  ---------------      ----- ------------  ---------------
     8      1.032036  1 C  py                 7     -0.737599  1 C  px         
    22     -0.604260  2 O  py                21      0.431866  2 O  px         
    19     -0.261515  2 O  py                18      0.186905  2 O  px         

 Vector    9  Occ=0.000000D+00  E= 3.130632D-01  Symmetry=e
              MO Center=  2.6D-18,  1.8D-18, -6.1D-01, r^2= 2.3D+00
   Bfn.  Coefficient  Atom+Function         Bfn.  Coefficient  Atom+Function  
  ----- ------------  ---------------      ----- ------------  ---------------
     7      1.032036  1 C  px                 8      0.737599  1 C  py         
    21     -0.604260  2 O  px                22     -0.431866  2 O  py         
    18     -0.261515  2 O  px                19     -0.186905  2 O  py         

 Vector   10  Occ=0.000000D+00  E= 4.027572D-01  Symmetry=a1
              MO Center=  4.3D-16,  1.4D-16, -8.4D-02, r^2= 3.1D+00
   Bfn.  Coefficient  Atom+Function         Bfn.  Coefficient  Atom+Function  
  ----- ------------  ---------------      ----- ------------  ---------------
    17      2.347430  2 O  s                  3     -2.010918  1 C  s          
     9     -1.751407  1 C  pz                23     -0.177607  2 O  pz         

 Vector   11  Occ=0.000000D+00  E= 7.002764D-01  Symmetry=a1
              MO Center= -9.1D-16,  1.4D-15, -8.2D-01, r^2= 2.0D+00
   Bfn.  Coefficient  Atom+Function         Bfn.  Coefficient  Atom+Function  
  ----- ------------  ---------------      ----- ------------  ---------------
     3      1.699820  1 C  s                 17     -1.169704  2 O  s          
    23      1.071703  2 O  pz                 6      0.675904  1 C  pz         
     9     -0.482608  1 C  pz                 2     -0.353900  1 C  s          
    20     -0.235437  2 O  pz         

 Vector   12  Occ=0.000000D+00  E= 7.162215D-01  Symmetry=e
              MO Center= -4.7D-16, -2.7D-16, -2.2D-02, r^2= 1.4D+00
   Bfn.  Coefficient  Atom+Function         Bfn.  Coefficient  Atom+Function  
  ----- ------------  ---------------      ----- ------------  ---------------
     4      0.896734  1 C  px                21     -0.556677  2 O  px         
     5      0.517449  1 C  py                 7     -0.369990  1 C  px         
    22     -0.321223  2 O  py                 8     -0.213498  1 C  py         

 Vector   13  Occ=0.000000D+00  E= 7.162215D-01  Symmetry=e
              MO Center=  8.6D-16, -1.5D-15, -2.2D-02, r^2= 1.4D+00
   Bfn.  Coefficient  Atom+Function         Bfn.  Coefficient  Atom+Function  
  ----- ------------  ---------------      ----- ------------  ---------------
     5      0.896734  1 C  py                22     -0.556677  2 O  py         
     4     -0.517449  1 C  px                 8     -0.369990  1 C  py         
    21      0.321223  2 O  px                 7      0.213498  1 C  px         

 Vector   14  Occ=0.000000D+00  E= 1.047023D+00  Symmetry=a1
              MO Center= -4.6D-17,  9.4D-17,  4.6D-01, r^2= 1.5D+00
   Bfn.  Coefficient  Atom+Function         Bfn.  Coefficient  Atom+Function  
  ----- ------------  ---------------      ----- ------------  ---------------
     2      1.670675  1 C  s                 23      1.620713  2 O  pz         
    17     -0.966029  2 O  s                  1      0.798324  1 C  s          
    20     -0.466550  2 O  pz         

 Vector   15  Occ=0.000000D+00  E= 1.188481D+00  Symmetry=e
              MO Center=  8.2D-17,  1.1D-16,  5.9D-02, r^2= 1.9D+00
   Bfn.  Coefficient  Atom+Function         Bfn.  Coefficient  Atom+Function  
  ----- ------------  ---------------      ----- ------------  ---------------
    22     -1.263530  2 O  py                21      1.169969  2 O  px         
     8      0.797842  1 C  py                 7     -0.738764  1 C  px         
    19      0.523454  2 O  py                18     -0.484694  2 O  px         
    11      0.422515  1 C  d -1              13      0.391229  1 C  d  1       

 Vector   16  Occ=0.000000D+00  E= 1.188481D+00  Symmetry=e
              MO Center= -3.5D-17,  1.7D-16,  5.9D-02, r^2= 1.9D+00
   Bfn.  Coefficient  Atom+Function         Bfn.  Coefficient  Atom+Function  
  ----- ------------  ---------------      ----- ------------  ---------------
    21      1.263530  2 O  px                22      1.169969  2 O  py         
     7     -0.797842  1 C  px                 8     -0.738764  1 C  py         
    18     -0.523454  2 O  px                19     -0.484694  2 O  py         
    13      0.422515  1 C  d  1              11     -0.391229  1 C  d -1       

 Vector   17  Occ=0.000000D+00  E= 1.343816D+00  Symmetry=b2
              MO Center=  1.2D-16, -1.8D-17, -3.8D-01, r^2= 8.8D-01
   Bfn.  Coefficient  Atom+Function         Bfn.  Coefficient  Atom+Function  
  ----- ------------  ---------------      ----- ------------  ---------------
    10      0.954189  1 C  d -2       


 center of mass
 --------------
 x =   0.00000000 y =   0.00000000 z =  -0.00011044

 moments of inertia (a.u.)
 ------------------
          13.772226909988           0.000000000000           0.000000000000
           0.000000000000          13.772226909988           0.000000000000
           0.000000000000           0.000000000000           0.000000000000

  Mulliken analysis of the total density
  --------------------------------------

    Atom       Charge   Shell Charges
 -----------   ------   -------------------------------------------------------
    1 C    6     6.28   2.00  0.74  1.00  2.07  0.34  0.12
    2 O    8     7.72   2.01  0.85  0.63  3.20  0.98  0.06

       Multipole analysis of the density wrt the origin
       ------------------------------------------------

     L   x y z        total         open         nuclear
     -   - - -        -----         ----         -------
     0   0 0 0     -0.000000      0.000000     14.000000

     1   1 0 0     -0.000000      0.000000      0.000000
     1   0 1 0     -0.000000      0.000000      0.000000
     1   0 0 1      0.525419      0.000000     -0.000000

     2   2 0 0     -6.513321      0.000000      0.000000
     2   1 1 0      0.000000      0.000000      0.000000
     2   1 0 1      0.000000      0.000000      0.000000
     2   0 2 0     -6.513321      0.000000      0.000000
     2   0 1 1      0.000000      0.000000      0.000000
     2   0 0 2     -8.471766      0.000000      6.887053


 Parallel integral file used       4 records with       0 large values

                              NWChem Gradients Module
                              -----------------------


                                        CO


  wavefunction    =   RHF     

  Using symmetry


                         RHF ENERGY GRADIENTS

    atom               coordinates                        gradient
                 x          y          z           x          y          z
   1 C       0.000000   0.000000  -0.809883    0.000000   0.000000   4.112394
   2 O       0.000000   0.000000   0.607412    0.000000   0.000000  -4.112394

                 ----------------------------------------
                 |  Time  |  1-e(secs)   |  2-e(secs)   |
                 ----------------------------------------
                 |  CPU   |       0.00   |       0.14   |
                 ----------------------------------------
                 |  WALL  |       0.00   |       0.14   |
                 ----------------------------------------
  no constraints, skipping    0.0000000000000000     

@ Step       Energy      Delta E   Gmax     Grms     Xrms     Xmax   Walltime
@ ---- ---------------- -------- -------- -------- -------- -------- --------
@    0    -111.84189757  0.0D+00  4.11239  4.11239  0.00000  0.00000      0.3
                                                                    



                                Z-matrix (autoz)
                                -------- 

 Units are Angstrom for bonds and degrees for angles

      Type          Name      I     J     K     L     M      Value     Gradient
      ----------- --------  ----- ----- ----- ----- ----- ---------- ----------
    1 Stretch                  1     2                       0.75000   -4.11239

 Restricting large step in mode    1 eval= 1.4D+00 step= 3.0D+00 new= 3.0D-01
  no constraints, skipping    0.0000000000000000     
  no constraints, skipping    0.0000000000000000     
  no constraints, skipping    0.0000000000000000     
                                 NWChem SCF Module
                                 -----------------


                                        CO



  ao basis        = "ao basis"
  functions       =    28
  atoms           =     2
  closed shells   =     7
  open shells     =     0
  charge          =   0.00
  wavefunction    = RHF 
  input vectors   = ./molecule.movecs
  output vectors  = ./molecule.movecs
  use symmetry    = T
  symmetry adapt  = T


 Summary of "ao basis" -> "ao basis" (spherical)
 ------------------------------------------------------------------------------
       Tag                 Description            Shells   Functions and Types
 ---------------- ------------------------------  ------  ---------------------
 C                          cc-pVDZ                  6       14   3s2p1d
 O                          cc-pVDZ                  6       14   3s2p1d


      Symmetry analysis of basis
      --------------------------

        a1         12
        a2          0
        b1          2
        b2          2
        e          12


 Forming initial guess at       0.3s


 Loading old vectors from job with title :

CO


      Symmetry analysis of molecular orbitals - initial
      -------------------------------------------------

  Numbering of irreducible representations: 

     1 a1          2 a2          3 b1          4 b2          5 e       

  Orbital symmetries:

     1 a1          2 a1          3 a1          4 e           5 e       
     6 a1          7 a1          8 e           9 e          10 a1      
    11 a1         12 e          13 e          14 a1         15 e       
    16 e          17 b2      


 Starting SCF solution at       0.3s



 ----------------------------------------------
         Quadratically convergent ROHF

 Convergence threshold     :          1.000E-04
 Maximum no. of iterations :           30
 Final Fock-matrix accuracy:          1.000E-07
 ----------------------------------------------

  avail0,avail1,avail0-avail1                337255               337255                    0
  avail0,avail1,avail0-avail1                337255               337255                    0
  avail0,avail1,avail0-avail1                337255               337270                  -15
  avail0,avail1,avail0-avail1                337255               337270                  -15

 #quartets = 3.081D+03 #integrals = 2.185D+04 #direct =  0.0% #cached =100.0%


 Integral file          = ./molecule.aoints.0
 Record size in doubles =  65536        No. of integs per rec  =  43688
 Max. records in memory =      3        Max. records in file   =  10010
 No. of bits per label  =      8        No. of bits per value  =     64


File balance: exchanges=     0  moved=     0  time=   0.0


              iter       energy          gnorm     gmax       time
             ----- ------------------- --------- --------- --------
                 1     -112.5269146161  8.64D-01  3.25D-01      0.4
                 2     -112.5660071045  2.41D-01  1.05D-01      0.4
                 3     -112.5680465186  1.24D-01  4.41D-02      0.4
                 4     -112.5687755135  4.95D-03  1.52D-03      0.4
                 5     -112.5687766243  4.72D-06  1.76D-06      0.4


       Final RHF  results 
       ------------------ 

         Total SCF energy =   -112.568776624335
      One-electron energy =   -208.150906850458
      Two-electron energy =     67.631187484853
 Nuclear repulsion energy =     27.950942741271

        Time for solution =      0.1s



       Symmetry analysis of molecular orbitals - final
       -----------------------------------------------

  Numbering of irreducible representations: 

     1 a1          2 a2          3 b1          4 b2          5 e       

  Orbital symmetries:

     1 a1          2 a1          3 a1          4 a1          5 e       
     6 e           7 a1          8 e           9 e          10 a1      
    11 e          12 e          13 a1         14 a1         15 e       
    16 e          17 b2      

             Final eigenvalues
             -----------------

              1      
    1  -20.6556
    2  -11.2826
    3   -1.6762
    4   -0.8193
    5   -0.7486
    6   -0.7486
    7   -0.5133
    8    0.2516
    9    0.2516
   10    0.3946
   11    0.6853
   12    0.6853
   13    0.7323
   14    1.0119
   15    1.1899
   16    1.1899
   17    1.3456

                       ROHF Final Molecular Orbital Analysis
                       -------------------------------------

 Vector    2  Occ=2.000000D+00  E=-1.128259D+01  Symmetry=a1
              MO Center= -7.5D-19,  6.0D-19, -5.1D-01, r^2= 2.7D-02
   Bfn.  Coefficient  Atom+Function         Bfn.  Coefficient  Atom+Function  
  ----- ------------  ---------------      ----- ------------  ---------------
     1      1.001786  1 C  s          

 Vector    3  Occ=2.000000D+00  E=-1.676184D+00  Symmetry=a1
              MO Center=  1.4D-17, -5.4D-18,  1.1D-01, r^2= 3.4D-01
   Bfn.  Coefficient  Atom+Function         Bfn.  Coefficient  Atom+Function  
  ----- ------------  ---------------      ----- ------------  ---------------
    16      0.410375  2 O  s                  6      0.264203  1 C  pz         
     2      0.240172  1 C  s                 17      0.235721  2 O  s          
    20     -0.229189  2 O  pz         

 Vector    4  Occ=2.000000D+00  E=-8.193338D-01  Symmetry=a1
              MO Center= -7.1D-17, -1.0D-16,  6.2D-01, r^2= 4.5D-01
   Bfn.  Coefficient  Atom+Function         Bfn.  Coefficient  Atom+Function  
  ----- ------------  ---------------      ----- ------------  ---------------
    20      0.575849  2 O  pz                17      0.433633  2 O  s          
    23      0.262714  2 O  pz                16      0.226529  2 O  s          
     2     -0.197375  1 C  s                  6     -0.175030  1 C  pz         

 Vector    5  Occ=2.000000D+00  E=-7.486489D-01  Symmetry=e
              MO Center= -4.4D-18, -1.2D-18,  1.5D-01, r^2= 6.5D-01
   Bfn.  Coefficient  Atom+Function         Bfn.  Coefficient  Atom+Function  
  ----- ------------  ---------------      ----- ------------  ---------------
    18      0.533334  2 O  px                 4      0.330382  1 C  px         
    21      0.280647  2 O  px         

 Vector    6  Occ=2.000000D+00  E=-7.486489D-01  Symmetry=e
              MO Center= -4.1D-18, -6.0D-19,  1.5D-01, r^2= 6.5D-01
   Bfn.  Coefficient  Atom+Function         Bfn.  Coefficient  Atom+Function  
  ----- ------------  ---------------      ----- ------------  ---------------
    19      0.533334  2 O  py                 5      0.330382  1 C  py         
    22      0.280647  2 O  py         

 Vector    7  Occ=2.000000D+00  E=-5.132888D-01  Symmetry=a1
              MO Center=  2.1D-18,  1.3D-16, -9.2D-01, r^2= 7.6D-01
   Bfn.  Coefficient  Atom+Function         Bfn.  Coefficient  Atom+Function  
  ----- ------------  ---------------      ----- ------------  ---------------
     3      0.625522  1 C  s                  6     -0.435380  1 C  pz         
     2      0.303199  1 C  s                  9     -0.175003  1 C  pz         
    20      0.150500  2 O  pz         

 Vector    8  Occ=0.000000D+00  E= 2.516268D-01  Symmetry=e
              MO Center=  1.9D-17, -2.8D-17, -5.3D-01, r^2= 2.0D+00
   Bfn.  Coefficient  Atom+Function         Bfn.  Coefficient  Atom+Function  
  ----- ------------  ---------------      ----- ------------  ---------------
     8      0.839827  1 C  py                 7     -0.580024  1 C  px         
    22     -0.535492  2 O  py                21      0.369836  2 O  px         
    19     -0.284623  2 O  py                 5      0.269628  1 C  py         
    18      0.196574  2 O  px                 4     -0.186218  1 C  px         

 Vector    9  Occ=0.000000D+00  E= 2.516268D-01  Symmetry=e
              MO Center=  6.1D-17,  4.7D-17, -5.3D-01, r^2= 2.0D+00
   Bfn.  Coefficient  Atom+Function         Bfn.  Coefficient  Atom+Function  
  ----- ------------  ---------------      ----- ------------  ---------------
     7      0.839827  1 C  px                 8      0.580024  1 C  py         
    21     -0.535492  2 O  px                22     -0.369836  2 O  py         
    18     -0.284623  2 O  px                 4      0.269628  1 C  px         
    19     -0.196574  2 O  py                 5      0.186218  1 C  py         

 Vector   10  Occ=0.000000D+00  E= 3.945786D-01  Symmetry=a1
              MO Center= -4.6D-19, -1.1D-18, -2.7D-01, r^2= 3.1D+00
   Bfn.  Coefficient  Atom+Function         Bfn.  Coefficient  Atom+Function  
  ----- ------------  ---------------      ----- ------------  ---------------
    17      2.175127  2 O  s                  3     -1.867667  1 C  s          
     9     -1.772245  1 C  pz                23     -0.354440  2 O  pz         

 Vector   11  Occ=0.000000D+00  E= 6.852795D-01  Symmetry=e
              MO Center= -7.8D-19,  5.1D-19, -3.2D-01, r^2= 1.7D+00
   Bfn.  Coefficient  Atom+Function         Bfn.  Coefficient  Atom+Function  
  ----- ------------  ---------------      ----- ------------  ---------------
     4      0.871068  1 C  px                 7     -0.672635  1 C  px         
     5     -0.573121  1 C  py                 8      0.442562  1 C  py         
    21     -0.211186  2 O  px         

 Vector   12  Occ=0.000000D+00  E= 6.852795D-01  Symmetry=e
              MO Center= -8.8D-17, -1.3D-16, -3.2D-01, r^2= 1.7D+00
   Bfn.  Coefficient  Atom+Function         Bfn.  Coefficient  Atom+Function  
  ----- ------------  ---------------      ----- ------------  ---------------
     5      0.871068  1 C  py                 8     -0.672635  1 C  py         
     4      0.573121  1 C  px                 7     -0.442562  1 C  px         
    22     -0.211186  2 O  py         

 Vector   13  Occ=0.000000D+00  E= 7.323371D-01  Symmetry=a1
              MO Center=  3.8D-17, -8.2D-17, -9.5D-01, r^2= 1.8D+00
   Bfn.  Coefficient  Atom+Function         Bfn.  Coefficient  Atom+Function  
  ----- ------------  ---------------      ----- ------------  ---------------
     3      1.703617  1 C  s                 17     -0.836276  2 O  s          
     2     -0.789656  1 C  s                 23      0.746165  2 O  pz         
     6      0.727513  1 C  pz                 9     -0.365955  1 C  pz         
     1     -0.247797  1 C  s                 20     -0.194424  2 O  pz         

 Vector   14  Occ=0.000000D+00  E= 1.011869D+00  Symmetry=a1
              MO Center= -2.0D-17, -9.1D-18,  6.7D-01, r^2= 1.5D+00
   Bfn.  Coefficient  Atom+Function         Bfn.  Coefficient  Atom+Function  
  ----- ------------  ---------------      ----- ------------  ---------------
    23      1.673095  2 O  pz                 2      1.445524  1 C  s          
    17     -1.077989  2 O  s                  1      0.719043  1 C  s          
    20     -0.482278  2 O  pz                 9      0.206588  1 C  pz         
     3      0.194677  1 C  s                  6      0.157014  1 C  pz         
    12      0.156148  1 C  d  0       

 Vector   15  Occ=0.000000D+00  E= 1.189938D+00  Symmetry=e
              MO Center=  1.2D-16,  7.5D-17,  2.9D-01, r^2= 1.7D+00
   Bfn.  Coefficient  Atom+Function         Bfn.  Coefficient  Atom+Function  
  ----- ------------  ---------------      ----- ------------  ---------------
    21      1.326468  2 O  px                22      0.859137  2 O  py         
     7     -0.727548  1 C  px                18     -0.663906  2 O  px         
     8     -0.471224  1 C  py                19     -0.430004  2 O  py         
    13      0.397845  1 C  d  1              11     -0.257679  1 C  d -1       

 Vector   16  Occ=0.000000D+00  E= 1.189938D+00  Symmetry=e
              MO Center= -8.9D-17,  2.4D-16,  2.9D-01, r^2= 1.7D+00
   Bfn.  Coefficient  Atom+Function         Bfn.  Coefficient  Atom+Function  
  ----- ------------  ---------------      ----- ------------  ---------------
    22      1.326468  2 O  py                21     -0.859137  2 O  px         
     8     -0.727548  1 C  py                19     -0.663906  2 O  py         
     7      0.471224  1 C  px                18      0.430004  2 O  px         
    11     -0.397845  1 C  d -1              13     -0.257679  1 C  d  1       

 Vector   17  Occ=0.000000D+00  E= 1.345607D+00  Symmetry=b2
              MO Center=  8.0D-17, -4.4D-17, -4.6D-01, r^2= 9.0D-01
   Bfn.  Coefficient  Atom+Function         Bfn.  Coefficient  Atom+Function  
  ----- ------------  ---------------      ----- ------------  ---------------
    10      0.965416  1 C  d -2       


 center of mass
 --------------
 x =   0.00000000 y =   0.00000000 z =   0.02129476

 moments of inertia (a.u.)
 ------------------
          20.219644930078           0.000000000000           0.000000000000
           0.000000000000          20.219644930078           0.000000000000
           0.000000000000           0.000000000000           0.000000000000

  Mulliken analysis of the total density
  --------------------------------------

    Atom       Charge   Shell Charges
 -----------   ------   -------------------------------------------------------
    1 C    6     6.13   2.00  0.77  0.99  1.82  0.40  0.14
    2 O    8     7.87   2.00  0.86  0.73  2.98  1.25  0.04

       Multipole analysis of the density wrt the origin
       ------------------------------------------------

     L   x y z        total         open         nuclear
     -   - - -        -----         ----         -------
     0   0 0 0     -0.000000      0.000000     14.000000

     1   1 0 0      0.000000      0.000000      0.000000
     1   0 1 0     -0.000000      0.000000      0.000000
     1   0 0 1      0.298662      0.000000      0.300000

     2   2 0 0     -6.980017      0.000000      0.000000
     2   1 1 0      0.000000      0.000000      0.000000
     2   1 0 1      0.000000      0.000000      0.000000
     2   0 2 0     -6.980017      0.000000      0.000000
     2   0 1 1      0.000000      0.000000      0.000000
     2   0 0 2     -8.754566      0.000000     10.117630


 Parallel integral file used       4 records with       0 large values

 Line search: 
     step= 1.00 grad=-1.2D+00 hess= 5.1D-01 energy=   -112.568777 mode=downhill
 new step= 1.22                   predicted energy=   -112.592659
  no constraints, skipping    0.0000000000000000     
  no constraints, skipping    0.0000000000000000     
  no constraints, skipping    0.0000000000000000     

          --------
          Step   1
          --------


                         Geometry "geometry" -> "geometry"
                         ---------------------------------

 Output coordinates in angstroms (scale by  1.889725989 to convert to a.u.)

  No.       Tag          Charge          X              Y              Z
 ---- ---------------- ---------- -------------- -------------- --------------
    1 C                    6.0000     0.00000000     0.00000000    -0.52517835
    2 O                    8.0000     0.00000000     0.00000000     0.41803550

      Atomic Mass 
      ----------- 

      C                 12.000000
      O                 15.994910


 Effective nuclear repulsion energy (a.u.)      26.9297444159

            Nuclear Dipole moment (a.u.) 
            ----------------------------
        X                 Y               Z
 ---------------- ---------------- ----------------
     0.0000000000     0.0000000000     0.3651212366

      Symmetry information
      --------------------

 Group name             C4v       
 Group number             18
 Group order               8
 No. of unique centers     2

      Symmetry unique atoms

     1    2

                                 NWChem SCF Module
                                 -----------------


                                        CO



  ao basis        = "ao basis"
  functions       =    28
  atoms           =     2
  closed shells   =     7
  open shells     =     0
  charge          =   0.00
  wavefunction    = RHF 
  input vectors   = ./molecule.movecs
  output vectors  = ./molecule.movecs
  use symmetry    = T
  symmetry adapt  = T


 Summary of "ao basis" -> "ao basis" (spherical)
 ------------------------------------------------------------------------------
       Tag                 Description            Shells   Functions and Types
 ---------------- ------------------------------  ------  ---------------------
 C                          cc-pVDZ                  6       14   3s2p1d
 O                          cc-pVDZ                  6       14   3s2p1d


      Symmetry analysis of basis
      --------------------------

        a1         12
        a2          0
        b1          2
        b2          2
        e          12


 Forming initial guess at       0.4s


 Loading old vectors from job with title :

CO


      Symmetry analysis of molecular orbitals - initial
      -------------------------------------------------

  Numbering of irreducible representations: 

     1 a1          2 a2          3 b1          4 b2          5 e       

  Orbital symmetries:

     1 a1          2 a1          3 a1          4 a1          5 e       
     6 e           7 a1          8 e           9 e          10 a1      
    11 e          12 e          13 a1         14 a1         15 e       
    16 e          17 b2      


 Starting SCF solution at       0.4s



 ----------------------------------------------
         Quadratically convergent ROHF

 Convergence threshold     :          1.000E-04
 Maximum no. of iterations :           30
 Final Fock-matrix accuracy:          1.000E-07
 ----------------------------------------------


 #quartets = 3.081D+03 #integrals = 2.185D+04 #direct =  0.0% #cached =100.0%


 Integral file          = ./molecule.aoints.0
 Record size in doubles =  65536        No. of integs per rec  =  43688
 Max. records in memory =      3        Max. records in file   = 160201
 No. of bits per label  =      8        No. of bits per value  =     64


File balance: exchanges=     0  moved=     0  time=   0.0


              iter       energy          gnorm     gmax       time
             ----- ------------------- --------- --------- --------
                 1     -112.6346473864  1.71D-01  4.90D-02      0.4
                 2     -112.6362227684  1.22D-02  6.10D-03      0.4
                 3     -112.6362325544  1.26D-04  4.30D-05      0.4
                 4     -112.6362325558  7.12D-06  2.43D-06      0.5


       Final RHF  results 
       ------------------ 

         Total SCF energy =   -112.636232555756
      One-electron energy =   -206.334976923658
      Two-electron energy =     66.768999951984
 Nuclear repulsion energy =     26.929744415918

        Time for solution =      0.0s



       Symmetry analysis of molecular orbitals - final
       -----------------------------------------------

  Numbering of irreducible representations: 

     1 a1          2 a2          3 b1          4 b2          5 e       

  Orbital symmetries:

     1 a1          2 a1          3 a1          4 a1          5 e       
     6 e           7 a1          8 e           9 e          10 a1      
    11 e          12 e          13 a1         14 a1         15 e       
    16 e          17 b2      

             Final eigenvalues
             -----------------

              1      
    1  -20.6582
    2  -11.2936
    3   -1.6538
    4   -0.8177
    5   -0.7277
    6   -0.7277
    7   -0.5197
    8    0.2362
    9    0.2362
   10    0.3928
   11    0.6819
   12    0.6819
   13    0.7348
   14    1.0120
   15    1.1938
   16    1.1938
   17    1.3458

                       ROHF Final Molecular Orbital Analysis
                       -------------------------------------

 Vector    2  Occ=2.000000D+00  E=-1.129358D+01  Symmetry=a1
              MO Center= -8.1D-19,  5.7D-19, -5.2D-01, r^2= 2.7D-02
   Bfn.  Coefficient  Atom+Function         Bfn.  Coefficient  Atom+Function  
  ----- ------------  ---------------      ----- ------------  ---------------
     1      1.001863  1 C  s          

 Vector    3  Occ=2.000000D+00  E=-1.653812D+00  Symmetry=a1
              MO Center=  1.4D-17, -6.9D-18,  1.2D-01, r^2= 3.5D-01
   Bfn.  Coefficient  Atom+Function         Bfn.  Coefficient  Atom+Function  
  ----- ------------  ---------------      ----- ------------  ---------------
    16      0.410703  2 O  s                  6      0.256597  1 C  pz         
    17      0.254572  2 O  s                  2      0.237809  1 C  s          
    20     -0.217834  2 O  pz         

 Vector    4  Occ=2.000000D+00  E=-8.176962D-01  Symmetry=a1
              MO Center= -7.6D-17, -1.1D-16,  6.2D-01, r^2= 4.7D-01
   Bfn.  Coefficient  Atom+Function         Bfn.  Coefficient  Atom+Function  
  ----- ------------  ---------------      ----- ------------  ---------------
    20      0.564688  2 O  pz                17      0.424639  2 O  s          
    23      0.264513  2 O  pz                16      0.230720  2 O  s          
     2     -0.211997  1 C  s                  6     -0.168015  1 C  pz         

 Vector    5  Occ=2.000000D+00  E=-7.277248D-01  Symmetry=e
              MO Center= -4.9D-18, -1.2D-18,  1.6D-01, r^2= 6.7D-01
   Bfn.  Coefficient  Atom+Function         Bfn.  Coefficient  Atom+Function  
  ----- ------------  ---------------      ----- ------------  ---------------
    18      0.531946  2 O  px                 4      0.323227  1 C  px         
    21      0.292072  2 O  px         

 Vector    6  Occ=2.000000D+00  E=-7.277248D-01  Symmetry=e
              MO Center= -3.9D-18, -2.6D-18,  1.6D-01, r^2= 6.7D-01
   Bfn.  Coefficient  Atom+Function         Bfn.  Coefficient  Atom+Function  
  ----- ------------  ---------------      ----- ------------  ---------------
    19      0.531946  2 O  py                 5      0.323227  1 C  py         
    22      0.292072  2 O  py         

 Vector    7  Occ=2.000000D+00  E=-5.197422D-01  Symmetry=a1
              MO Center=  4.3D-18,  1.3D-16, -9.2D-01, r^2= 7.7D-01
   Bfn.  Coefficient  Atom+Function         Bfn.  Coefficient  Atom+Function  
  ----- ------------  ---------------      ----- ------------  ---------------
     3      0.622519  1 C  s                  6     -0.438217  1 C  pz         
     2      0.303191  1 C  s                  9     -0.172200  1 C  pz         
    20      0.164503  2 O  pz         

 Vector    8  Occ=0.000000D+00  E= 2.361861D-01  Symmetry=e
              MO Center=  8.1D-17,  4.6D-17, -5.1D-01, r^2= 1.9D+00
   Bfn.  Coefficient  Atom+Function         Bfn.  Coefficient  Atom+Function  
  ----- ------------  ---------------      ----- ------------  ---------------
     7      0.856178  1 C  px                21     -0.551321  2 O  px         
     8      0.460529  1 C  py                 4      0.310056  1 C  px         
    18     -0.306801  2 O  px                22     -0.296550  2 O  py         
     5      0.166776  1 C  py                19     -0.165025  2 O  py         

 Vector    9  Occ=0.000000D+00  E= 2.361861D-01  Symmetry=e
              MO Center=  7.1D-18, -9.1D-18, -5.1D-01, r^2= 1.9D+00
   Bfn.  Coefficient  Atom+Function         Bfn.  Coefficient  Atom+Function  
  ----- ------------  ---------------      ----- ------------  ---------------
     8      0.856178  1 C  py                22     -0.551321  2 O  py         
     7     -0.460529  1 C  px                 5      0.310056  1 C  py         
    19     -0.306801  2 O  py                21      0.296550  2 O  px         
     4     -0.166776  1 C  px                18      0.165025  2 O  px         

 Vector   10  Occ=0.000000D+00  E= 3.927725D-01  Symmetry=a1
              MO Center= -1.5D-19, -2.0D-18, -3.0D-01, r^2= 3.1D+00
   Bfn.  Coefficient  Atom+Function         Bfn.  Coefficient  Atom+Function  
  ----- ------------  ---------------      ----- ------------  ---------------
    17      2.132940  2 O  s                  3     -1.836942  1 C  s          
     9     -1.772349  1 C  pz                23     -0.392200  2 O  pz         

 Vector   11  Occ=0.000000D+00  E= 6.819443D-01  Symmetry=e
              MO Center= -6.5D-17,  1.3D-17, -3.7D-01, r^2= 1.7D+00
   Bfn.  Coefficient  Atom+Function         Bfn.  Coefficient  Atom+Function  
  ----- ------------  ---------------      ----- ------------  ---------------
     4      1.021229  1 C  px                 7     -0.839742  1 C  px         
     5     -0.206790  1 C  py                21     -0.190235  2 O  px         
     8      0.170041  1 C  py         

 Vector   12  Occ=0.000000D+00  E= 6.819443D-01  Symmetry=e
              MO Center= -2.9D-17, -1.4D-16, -3.7D-01, r^2= 1.7D+00
   Bfn.  Coefficient  Atom+Function         Bfn.  Coefficient  Atom+Function  
  ----- ------------  ---------------      ----- ------------  ---------------
     5      1.021229  1 C  py                 8     -0.839742  1 C  py         
     4      0.206790  1 C  px                22     -0.190235  2 O  py         
     7     -0.170041  1 C  px         

 Vector   13  Occ=0.000000D+00  E= 7.347721D-01  Symmetry=a1
              MO Center=  3.2D-17, -7.6D-17, -9.9D-01, r^2= 1.8D+00
   Bfn.  Coefficient  Atom+Function         Bfn.  Coefficient  Atom+Function  
  ----- ------------  ---------------      ----- ------------  ---------------
     3      1.692247  1 C  s                  2     -0.884135  1 C  s          
    17     -0.749328  2 O  s                  6      0.720543  1 C  pz         
    23      0.666071  2 O  pz                 9     -0.357208  1 C  pz         
     1     -0.298260  1 C  s                 20     -0.178870  2 O  pz         

 Vector   14  Occ=0.000000D+00  E= 1.012021D+00  Symmetry=a1
              MO Center= -2.6D-17, -9.1D-18,  7.2D-01, r^2= 1.4D+00
   Bfn.  Coefficient  Atom+Function         Bfn.  Coefficient  Atom+Function  
  ----- ------------  ---------------      ----- ------------  ---------------
    23      1.682118  2 O  pz                 2      1.370771  1 C  s          
    17     -1.079288  2 O  s                  1      0.683998  1 C  s          
    20     -0.490593  2 O  pz                 3      0.257390  1 C  s          
     6      0.219602  1 C  pz                 9      0.219699  1 C  pz         
    12      0.176639  1 C  d  0       

 Vector   15  Occ=0.000000D+00  E= 1.193804D+00  Symmetry=e
              MO Center=  1.0D-16,  8.7D-17,  3.4D-01, r^2= 1.7D+00
   Bfn.  Coefficient  Atom+Function         Bfn.  Coefficient  Atom+Function  
  ----- ------------  ---------------      ----- ------------  ---------------
    21      1.225784  2 O  px                22      0.944804  2 O  py         
     7     -0.648959  1 C  px                18     -0.640066  2 O  px         
     8     -0.500202  1 C  py                19     -0.493347  2 O  py         
    13      0.356386  1 C  d  1              11     -0.274693  1 C  d -1       

 Vector   16  Occ=0.000000D+00  E= 1.193804D+00  Symmetry=e
              MO Center= -7.9D-17,  2.1D-16,  3.4D-01, r^2= 1.7D+00
   Bfn.  Coefficient  Atom+Function         Bfn.  Coefficient  Atom+Function  
  ----- ------------  ---------------      ----- ------------  ---------------
    22      1.225784  2 O  py                21     -0.944804  2 O  px         
     8     -0.648959  1 C  py                19     -0.640066  2 O  py         
     7      0.500202  1 C  px                18      0.493347  2 O  px         
    11     -0.356386  1 C  d -1              13     -0.274693  1 C  d  1       

 Vector   17  Occ=0.000000D+00  E= 1.345834D+00  Symmetry=b2
              MO Center=  7.6D-17, -4.1D-17, -4.8D-01, r^2= 9.0D-01
   Bfn.  Coefficient  Atom+Function         Bfn.  Coefficient  Atom+Function  
  ----- ------------  ---------------      ----- ------------  ---------------
    10      0.968261  1 C  d -2       


 center of mass
 --------------
 x =   0.00000000 y =   0.00000000 z =   0.02594120

 moments of inertia (a.u.)
 ------------------
          21.782212102166           0.000000000000           0.000000000000
           0.000000000000          21.782212102166           0.000000000000
           0.000000000000           0.000000000000           0.000000000000

  Mulliken analysis of the total density
  --------------------------------------

    Atom       Charge   Shell Charges
 -----------   ------   -------------------------------------------------------
    1 C    6     6.09   2.00  0.78  0.99  1.77  0.42  0.14
    2 O    8     7.91   2.00  0.86  0.75  2.94  1.31  0.04

       Multipole analysis of the density wrt the origin
       ------------------------------------------------

     L   x y z        total         open         nuclear
     -   - - -        -----         ----         -------
     0   0 0 0     -0.000000      0.000000     14.000000

     1   1 0 0      0.000000      0.000000      0.000000
     1   0 1 0     -0.000000      0.000000      0.000000
     1   0 0 1      0.242356      0.000000      0.365121

     2   2 0 0     -7.066475      0.000000      0.000000
     2   1 1 0      0.000000      0.000000      0.000000
     2   1 0 1      0.000000      0.000000      0.000000
     2   0 2 0     -7.066475      0.000000      0.000000
     2   0 1 1      0.000000      0.000000      0.000000
     2   0 0 2     -8.809717      0.000000     10.902114


 Parallel integral file used       4 records with       0 large values

                              NWChem Gradients Module
                              -----------------------


                                        CO


  wavefunction    =   RHF     

  Using symmetry


                         RHF ENERGY GRADIENTS

    atom               coordinates                        gradient
                 x          y          z           x          y          z
   1 C       0.000000   0.000000  -0.992443    0.000000   0.000000   0.876942
   2 O       0.000000   0.000000   0.789973    0.000000   0.000000  -0.876942

                 ----------------------------------------
                 |  Time  |  1-e(secs)   |  2-e(secs)   |
                 ----------------------------------------
                 |  CPU   |       0.00   |       0.13   |
                 ----------------------------------------
                 |  WALL  |       0.00   |       0.13   |
                 ----------------------------------------
  no constraints, skipping    0.0000000000000000     

  Step       Energy      Delta E   Gmax     Grms     Xrms     Xmax   Walltime
  ---- ---------------- -------- -------- -------- -------- -------- --------
@    1    -112.63623256 -7.9D-01  0.87694  0.87694  0.10540  0.18256      0.6
                                                                    



                                Z-matrix (autoz)
                                -------- 

 Units are Angstrom for bonds and degrees for angles

      Type          Name      I     J     K     L     M      Value     Gradient
      ----------- --------  ----- ----- ----- ----- ----- ---------- ----------
    1 Stretch                  1     2                       0.94321   -0.87694

  no constraints, skipping    0.0000000000000000     
  no constraints, skipping    0.0000000000000000     
  no constraints, skipping    0.0000000000000000     
                                 NWChem SCF Module
                                 -----------------


                                        CO



  ao basis        = "ao basis"
  functions       =    28
  atoms           =     2
  closed shells   =     7
  open shells     =     0
  charge          =   0.00
  wavefunction    = RHF 
  input vectors   = ./molecule.movecs
  output vectors  = ./molecule.movecs
  use symmetry    = T
  symmetry adapt  = T


 Summary of "ao basis" -> "ao basis" (spherical)
 ------------------------------------------------------------------------------
       Tag                 Description            Shells   Functions and Types
 ---------------- ------------------------------  ------  ---------------------
 C                          cc-pVDZ                  6       14   3s2p1d
 O                          cc-pVDZ                  6       14   3s2p1d


      Symmetry analysis of basis
      --------------------------

        a1         12
        a2          0
        b1          2
        b2          2
        e          12


 Forming initial guess at       0.6s


 Loading old vectors from job with title :

CO


      Symmetry analysis of molecular orbitals - initial
      -------------------------------------------------

  Numbering of irreducible representations: 

     1 a1          2 a2          3 b1          4 b2          5 e       

  Orbital symmetries:

     1 a1          2 a1          3 a1          4 a1          5 e       
     6 e           7 a1          8 e           9 e          10 a1      
    11 e          12 e          13 a1         14 a1         15 e       
    16 e          17 b2      


 Starting SCF solution at       0.6s



 ----------------------------------------------
         Quadratically convergent ROHF

 Convergence threshold     :          1.000E-04
 Maximum no. of iterations :           30
 Final Fock-matrix accuracy:          1.000E-07
 ----------------------------------------------

  avail0,avail1,avail0-avail1                337255               337255                    0
  avail0,avail1,avail0-avail1                337255               337255                    0
  avail0,avail1,avail0-avail1                337255               337270                  -15
  avail0,avail1,avail0-avail1                337255               337270                  -15

 #quartets = 3.081D+03 #integrals = 2.185D+04 #direct =  0.0% #cached =100.0%


 Integral file          = ./molecule.aoints.0
 Record size in doubles =  65536        No. of integs per rec  =  43688
 Max. records in memory =      3        Max. records in file   =  10010
 No. of bits per label  =      8        No. of bits per value  =     64


File balance: exchanges=     0  moved=     0  time=   0.0


              iter       energy          gnorm     gmax       time
             ----- ------------------- --------- --------- --------
                 1     -112.6998038241  2.43D-01  7.51D-02      0.6
                 2     -112.7030833282  1.88D-02  9.53D-03      0.6
                 3     -112.7031070523  2.36D-04  8.82D-05      0.6
                 4     -112.7031070576  3.01D-06  1.38D-06      0.7


       Final RHF  results 
       ------------------ 

         Total SCF energy =   -112.703107057628
      One-electron energy =   -203.767539159536
      Two-electron energy =     65.551228120968
 Nuclear repulsion energy =     25.513203980940

        Time for solution =      0.0s



       Symmetry analysis of molecular orbitals - final
       -----------------------------------------------

  Numbering of irreducible representations: 

     1 a1          2 a2          3 b1          4 b2          5 e       

  Orbital symmetries:

     1 a1          2 a1          3 a1          4 a1          5 e       
     6 e           7 a1          8 e           9 e          10 a1      
    11 e          12 e          13 a1         14 a1         15 e       
    16 e          17 a1      

             Final eigenvalues
             -----------------

              1      
    1  -20.6623
    2  -11.3128
    3   -1.6175
    4   -0.8141
    5   -0.6984
    6   -0.6984
    7   -0.5291
    8    0.2125
    9    0.2125
   10    0.3901
   11    0.6782
   12    0.6782
   13    0.7355
   14    1.0165
   15    1.2013
   16    1.2013
   17    1.2898

                       ROHF Final Molecular Orbital Analysis
                       -------------------------------------

 Vector    2  Occ=2.000000D+00  E=-1.131281D+01  Symmetry=a1
              MO Center= -8.9D-19,  5.5D-19, -5.5D-01, r^2= 2.7D-02
   Bfn.  Coefficient  Atom+Function         Bfn.  Coefficient  Atom+Function  
  ----- ------------  ---------------      ----- ------------  ---------------
     1      1.001808  1 C  s          

 Vector    3  Occ=2.000000D+00  E=-1.617505D+00  Symmetry=a1
              MO Center=  1.4D-17, -9.0D-18,  1.4D-01, r^2= 3.7D-01
   Bfn.  Coefficient  Atom+Function         Bfn.  Coefficient  Atom+Function  
  ----- ------------  ---------------      ----- ------------  ---------------
    16      0.412185  2 O  s                 17      0.282078  2 O  s          
     6      0.244972  1 C  pz                 2      0.233387  1 C  s          
    20     -0.200736  2 O  pz         

 Vector    4  Occ=2.000000D+00  E=-8.140982D-01  Symmetry=a1
              MO Center= -8.5D-17, -1.2D-16,  6.1D-01, r^2= 5.2D-01
   Bfn.  Coefficient  Atom+Function         Bfn.  Coefficient  Atom+Function  
  ----- ------------  ---------------      ----- ------------  ---------------
    20      0.547223  2 O  pz                17      0.412831  2 O  s          
    23      0.265994  2 O  pz                 2     -0.235358  1 C  s          
    16      0.235440  2 O  s                  6     -0.157919  1 C  pz         

 Vector    5  Occ=2.000000D+00  E=-6.983555D-01  Symmetry=e
              MO Center= -6.8D-18, -1.7D-18,  1.8D-01, r^2= 7.1D-01
   Bfn.  Coefficient  Atom+Function         Bfn.  Coefficient  Atom+Function  
  ----- ------------  ---------------      ----- ------------  ---------------
    18      0.530614  2 O  px                 4      0.312295  1 C  px         
    21      0.308163  2 O  px         

 Vector    6  Occ=2.000000D+00  E=-6.983555D-01  Symmetry=e
              MO Center= -3.5D-18, -6.0D-18,  1.8D-01, r^2= 7.1D-01
   Bfn.  Coefficient  Atom+Function         Bfn.  Coefficient  Atom+Function  
  ----- ------------  ---------------      ----- ------------  ---------------
    19      0.530614  2 O  py                 5      0.312295  1 C  py         
    22      0.308163  2 O  py         

 Vector    7  Occ=2.000000D+00  E=-5.290851D-01  Symmetry=a1
              MO Center=  9.4D-18,  1.4D-16, -9.2D-01, r^2= 8.0D-01
   Bfn.  Coefficient  Atom+Function         Bfn.  Coefficient  Atom+Function  
  ----- ------------  ---------------      ----- ------------  ---------------
     3      0.615016  1 C  s                  6     -0.442591  1 C  pz         
     2      0.302489  1 C  s                 20      0.187256  2 O  pz         
     9     -0.168647  1 C  pz         

 Vector    8  Occ=0.000000D+00  E= 2.124850D-01  Symmetry=e
              MO Center=  2.4D-19,  1.3D-18, -5.0D-01, r^2= 1.8D+00
   Bfn.  Coefficient  Atom+Function         Bfn.  Coefficient  Atom+Function  
  ----- ------------  ---------------      ----- ------------  ---------------
     8      0.797383  1 C  py                22     -0.518344  2 O  py         
     7     -0.428865  1 C  px                 5      0.338170  1 C  py         
    19     -0.308558  2 O  py                21      0.278787  2 O  px         
     4     -0.181882  1 C  px                18      0.165955  2 O  px         

 Vector    9  Occ=0.000000D+00  E= 2.124850D-01  Symmetry=e
              MO Center=  9.4D-17,  5.1D-17, -5.0D-01, r^2= 1.8D+00
   Bfn.  Coefficient  Atom+Function         Bfn.  Coefficient  Atom+Function  
  ----- ------------  ---------------      ----- ------------  ---------------
     7      0.797383  1 C  px                21     -0.518344  2 O  px         
     8      0.428865  1 C  py                 4      0.338170  1 C  px         
    18     -0.308558  2 O  px                22     -0.278787  2 O  py         
     5      0.181882  1 C  py                19     -0.165955  2 O  py         

 Vector   10  Occ=0.000000D+00  E= 3.900961D-01  Symmetry=a1
              MO Center=  6.0D-18, -1.2D-17, -3.6D-01, r^2= 3.1D+00
   Bfn.  Coefficient  Atom+Function         Bfn.  Coefficient  Atom+Function  
  ----- ------------  ---------------      ----- ------------  ---------------
    17      2.064753  2 O  s                  3     -1.787406  1 C  s          
     9     -1.769208  1 C  pz                23     -0.448351  2 O  pz         

 Vector   11  Occ=0.000000D+00  E= 6.781873D-01  Symmetry=e
              MO Center=  2.8D-17, -7.6D-17, -4.5D-01, r^2= 1.8D+00
   Bfn.  Coefficient  Atom+Function         Bfn.  Coefficient  Atom+Function  
  ----- ------------  ---------------      ----- ------------  ---------------
     5      0.978206  1 C  py                 8     -0.864460  1 C  py         
     4     -0.354257  1 C  px                 7      0.313064  1 C  px         

 Vector   12  Occ=0.000000D+00  E= 6.781873D-01  Symmetry=e
              MO Center= -1.4D-16, -5.1D-17, -4.5D-01, r^2= 1.8D+00
   Bfn.  Coefficient  Atom+Function         Bfn.  Coefficient  Atom+Function  
  ----- ------------  ---------------      ----- ------------  ---------------
     4      0.978206  1 C  px                 7     -0.864460  1 C  px         
     5      0.354257  1 C  py                 8     -0.313064  1 C  py         

 Vector   13  Occ=0.000000D+00  E= 7.355405D-01  Symmetry=a1
              MO Center=  3.4D-17, -7.0D-17, -1.0D+00, r^2= 1.7D+00
   Bfn.  Coefficient  Atom+Function         Bfn.  Coefficient  Atom+Function  
  ----- ------------  ---------------      ----- ------------  ---------------
     3      1.671353  1 C  s                  2     -1.010724  1 C  s          
     6      0.701289  1 C  pz                17     -0.624983  2 O  s          
    23      0.552504  2 O  pz                 1     -0.366119  1 C  s          
     9     -0.349205  1 C  pz                20     -0.153610  2 O  pz         

 Vector   14  Occ=0.000000D+00  E= 1.016523D+00  Symmetry=a1
              MO Center= -3.4D-17, -8.4D-18,  7.8D-01, r^2= 1.4D+00
   Bfn.  Coefficient  Atom+Function         Bfn.  Coefficient  Atom+Function  
  ----- ------------  ---------------      ----- ------------  ---------------
    23      1.687735  2 O  pz                 2      1.253503  1 C  s          
    17     -1.054306  2 O  s                  1      0.625574  1 C  s          
    20     -0.499838  2 O  pz                 3      0.335466  1 C  s          
     6      0.310401  1 C  pz                 9      0.228042  1 C  pz         
    12      0.205212  1 C  d  0       

 Vector   15  Occ=0.000000D+00  E= 1.201290D+00  Symmetry=e
              MO Center= -8.5D-17,  2.1D-16,  4.0D-01, r^2= 1.6D+00
   Bfn.  Coefficient  Atom+Function         Bfn.  Coefficient  Atom+Function  
  ----- ------------  ---------------      ----- ------------  ---------------
    22      1.251786  2 O  py                21     -0.823840  2 O  px         
    19     -0.697030  2 O  py                 8     -0.625804  1 C  py         
    18      0.458737  2 O  px                 7      0.411861  1 C  px         
    11     -0.343656  1 C  d -1              13     -0.226171  1 C  d  1       

 Vector   16  Occ=0.000000D+00  E= 1.201290D+00  Symmetry=e
              MO Center=  1.1D-16,  7.6D-17,  4.0D-01, r^2= 1.6D+00
   Bfn.  Coefficient  Atom+Function         Bfn.  Coefficient  Atom+Function  
  ----- ------------  ---------------      ----- ------------  ---------------
    21      1.251786  2 O  px                22      0.823840  2 O  py         
    18     -0.697030  2 O  px                 7     -0.625804  1 C  px         
    19     -0.458737  2 O  py                 8     -0.411861  1 C  py         
    13      0.343656  1 C  d  1              11     -0.226171  1 C  d -1       

 Vector   17  Occ=0.000000D+00  E= 1.289809D+00  Symmetry=a1
              MO Center= -4.2D-17, -1.0D-16, -3.6D-01, r^2= 1.0D+00
   Bfn.  Coefficient  Atom+Function         Bfn.  Coefficient  Atom+Function  
  ----- ------------  ---------------      ----- ------------  ---------------
     2      0.767094  1 C  s                 12     -0.745628  1 C  d  0       
     3     -0.694626  1 C  s                  9     -0.649509  1 C  pz         
     6      0.644212  1 C  pz                17      0.535698  2 O  s          
    20      0.363054  2 O  pz                 1      0.303885  1 C  s          
    23      0.252034  2 O  pz                16     -0.167348  2 O  s          


 center of mass
 --------------
 x =   0.00000000 y =   0.00000000 z =   0.03300227

 moments of inertia (a.u.)
 ------------------
          24.268137298194           0.000000000000           0.000000000000
           0.000000000000          24.268137298194           0.000000000000
           0.000000000000           0.000000000000           0.000000000000

  Mulliken analysis of the total density
  --------------------------------------

    Atom       Charge   Shell Charges
 -----------   ------   -------------------------------------------------------
    1 C    6     6.04   2.00  0.79  0.97  1.69  0.44  0.14
    2 O    8     7.96   2.00  0.87  0.78  2.89  1.39  0.04

       Multipole analysis of the density wrt the origin
       ------------------------------------------------

     L   x y z        total         open         nuclear
     -   - - -        -----         ----         -------
     0   0 0 0     -0.000000      0.000000     14.000000

     1   1 0 0      0.000000      0.000000      0.000000
     1   0 1 0     -0.000000      0.000000      0.000000
     1   0 0 1      0.152773      0.000000      0.464084

     2   2 0 0     -7.189081      0.000000      0.000000
     2   1 1 0      0.000000      0.000000      0.000000
     2   1 0 1      0.000000      0.000000      0.000000
     2   0 2 0     -7.189081      0.000000      0.000000
     2   0 1 1      0.000000      0.000000      0.000000
     2   0 0 2     -8.885771      0.000000     12.151107


 Parallel integral file used       4 records with       0 large values

 Line search: 
     step= 1.00 grad=-8.7D-02 hess= 2.0D-02 energy=   -112.703107 mode=downhill
 new step= 2.18                   predicted energy=   -112.730802
  no constraints, skipping    0.0000000000000000     
  no constraints, skipping    0.0000000000000000     
  no constraints, skipping    0.0000000000000000     

          --------
          Step   2
          --------


                         Geometry "geometry" -> "geometry"
                         ---------------------------------

 Output coordinates in angstroms (scale by  1.889725989 to convert to a.u.)

  No.       Tag          Charge          X              Y              Z
 ---- ---------------- ---------- -------------- -------------- --------------
    1 C                    6.0000     0.00000000     0.00000000    -0.58224466
    2 O                    8.0000     0.00000000     0.00000000     0.47510180

      Atomic Mass 
      ----------- 

      C                 12.000000
      O                 15.994910


 Effective nuclear repulsion energy (a.u.)      24.0228807722

            Nuclear Dipole moment (a.u.) 
            ----------------------------
        X                 Y               Z
 ---------------- ---------------- ----------------
     0.0000000000     0.0000000000     0.5808005936

      Symmetry information
      --------------------

 Group name             C4v       
 Group number             18
 Group order               8
 No. of unique centers     2

      Symmetry unique atoms

     1    2

                                 NWChem SCF Module
                                 -----------------


                                        CO



  ao basis        = "ao basis"
  functions       =    28
  atoms           =     2
  closed shells   =     7
  open shells     =     0
  charge          =   0.00
  wavefunction    = RHF 
  input vectors   = ./molecule.movecs
  output vectors  = ./molecule.movecs
  use symmetry    = T
  symmetry adapt  = T


 Summary of "ao basis" -> "ao basis" (spherical)
 ------------------------------------------------------------------------------
       Tag                 Description            Shells   Functions and Types
 ---------------- ------------------------------  ------  ---------------------
 C                          cc-pVDZ                  6       14   3s2p1d
 O                          cc-pVDZ                  6       14   3s2p1d


      Symmetry analysis of basis
      --------------------------

        a1         12
        a2          0
        b1          2
        b2          2
        e          12


 Forming initial guess at       0.7s


 Loading old vectors from job with title :

CO


      Symmetry analysis of molecular orbitals - initial
      -------------------------------------------------

  Numbering of irreducible representations: 

     1 a1          2 a2          3 b1          4 b2          5 e       

  Orbital symmetries:

     1 a1          2 a1          3 a1          4 a1          5 e       
     6 e           7 a1          8 e           9 e          10 a1      
    11 e          12 e          13 a1         14 a1         15 e       
    16 e          17 a1      


 Starting SCF solution at       0.7s



 ----------------------------------------------
         Quadratically convergent ROHF

 Convergence threshold     :          1.000E-04
 Maximum no. of iterations :           30
 Final Fock-matrix accuracy:          1.000E-07
 ----------------------------------------------


 #quartets = 3.081D+03 #integrals = 2.185D+04 #direct =  0.0% #cached =100.0%


 Integral file          = ./molecule.aoints.0
 Record size in doubles =  65536        No. of integs per rec  =  43688
 Max. records in memory =      3        Max. records in file   = 160201
 No. of bits per label  =      8        No. of bits per value  =     64


File balance: exchanges=     0  moved=     0  time=   0.0


              iter       energy          gnorm     gmax       time
             ----- ------------------- --------- --------- --------
                 1     -112.7375261998  2.61D-01  8.69D-02      0.7
                 2     -112.7414992205  2.19D-02  1.20D-02      0.7
                 3     -112.7415331865  3.54D-04  1.52D-04      0.7
                 4     -112.7415332003  4.69D-06  2.19D-06      0.7


       Final RHF  results 
       ------------------ 

         Total SCF energy =   -112.741533200295
      One-electron energy =   -201.011029263419
      Two-electron energy =     64.246615290944
 Nuclear repulsion energy =     24.022880772179

        Time for solution =      0.0s



       Symmetry analysis of molecular orbitals - final
       -----------------------------------------------

  Numbering of irreducible representations: 

     1 a1          2 a2          3 b1          4 b2          5 e       

  Orbital symmetries:

     1 a1          2 a1          3 a1          4 a1          5 e       
     6 e           7 a1          8 e           9 e          10 a1      
    11 e          12 e          13 a1         14 a1         15 a1      
    16 e          17 e       

             Final eigenvalues
             -----------------

              1      
    1  -20.6664
    2  -11.3375
    3   -1.5732
    4   -0.8088
    5   -0.6669
    6   -0.6669
    7   -0.5391
    8    0.1849
    9    0.1849
   10    0.3869
   11    0.6750
   12    0.6750
   13    0.7328
   14    1.0264
   15    1.1702
   16    1.2118
   17    1.2118

                       ROHF Final Molecular Orbital Analysis
                       -------------------------------------

 Vector    2  Occ=2.000000D+00  E=-1.133752D+01  Symmetry=a1
              MO Center= -9.5D-19,  5.5D-19, -5.8D-01, r^2= 2.7D-02
   Bfn.  Coefficient  Atom+Function         Bfn.  Coefficient  Atom+Function  
  ----- ------------  ---------------      ----- ------------  ---------------
     1      1.001603  1 C  s          

 Vector    3  Occ=2.000000D+00  E=-1.573235D+00  Symmetry=a1
              MO Center=  1.4D-17, -9.2D-18,  1.7D-01, r^2= 3.9D-01
   Bfn.  Coefficient  Atom+Function         Bfn.  Coefficient  Atom+Function  
  ----- ------------  ---------------      ----- ------------  ---------------
    16      0.415197  2 O  s                 17      0.313311  2 O  s          
     6      0.230460  1 C  pz                 2      0.226516  1 C  s          
    20     -0.181325  2 O  pz         

 Vector    4  Occ=2.000000D+00  E=-8.087642D-01  Symmetry=a1
              MO Center= -1.2D-19,  1.4D-19,  5.8D-01, r^2= 6.1D-01
   Bfn.  Coefficient  Atom+Function         Bfn.  Coefficient  Atom+Function  
  ----- ------------  ---------------      ----- ------------  ---------------
    20      0.525145  2 O  pz                17      0.400285  2 O  s          
    23      0.265583  2 O  pz                 2     -0.264210  1 C  s          
    16      0.238607  2 O  s          

 Vector    5  Occ=2.000000D+00  E=-6.669117D-01  Symmetry=e
              MO Center= -1.3D-17, -3.4D-18,  2.1D-01, r^2= 7.4D-01
   Bfn.  Coefficient  Atom+Function         Bfn.  Coefficient  Atom+Function  
  ----- ------------  ---------------      ----- ------------  ---------------
    18      0.529951  2 O  px                21      0.325368  2 O  px         
     4      0.299619  1 C  px         

 Vector    6  Occ=2.000000D+00  E=-6.669117D-01  Symmetry=e
              MO Center=  2.2D-18, -2.8D-17,  2.1D-01, r^2= 7.4D-01
   Bfn.  Coefficient  Atom+Function         Bfn.  Coefficient  Atom+Function  
[...]
    20      0.504210  2 O  pz                17      0.389718  2 O  s          
     2     -0.289887  1 C  s                 23      0.262988  2 O  pz         
    16      0.239452  2 O  s          

 Vector    5  Occ=2.000000D+00  E=-6.423691D-01  Symmetry=e
              MO Center= -1.3D-17, -3.4D-18,  2.3D-01, r^2= 7.7D-01
   Bfn.  Coefficient  Atom+Function         Bfn.  Coefficient  Atom+Function  
  ----- ------------  ---------------      ----- ------------  ---------------
    18      0.529963  2 O  px                21      0.338699  2 O  px         
     4      0.289175  1 C  px         

 Vector    6  Occ=2.000000D+00  E=-6.423691D-01  Symmetry=e
              MO Center= -3.9D-19,  1.5D-18,  2.3D-01, r^2= 7.7D-01
   Bfn.  Coefficient  Atom+Function         Bfn.  Coefficient  Atom+Function  
  ----- ------------  ---------------      ----- ------------  ---------------
    19      0.529963  2 O  py                22      0.338699  2 O  py         
     5      0.289175  1 C  py         

 Vector    7  Occ=2.000000D+00  E=-5.465724D-01  Symmetry=a1
              MO Center= -3.2D-33, -6.4D-33, -8.9D-01, r^2= 9.1D-01
   Bfn.  Coefficient  Atom+Function         Bfn.  Coefficient  Atom+Function  
  ----- ------------  ---------------      ----- ------------  ---------------
     3      0.586218  1 C  s                  6     -0.451324  1 C  pz         
     2      0.295525  1 C  s                 20      0.243635  2 O  pz         
     9     -0.163430  1 C  pz         

 Vector    8  Occ=0.000000D+00  E= 1.621842D-01  Symmetry=e
              MO Center=  1.1D-18, -1.2D-19, -4.9D-01, r^2= 1.7D+00
   Bfn.  Coefficient  Atom+Function         Bfn.  Coefficient  Atom+Function  
  ----- ------------  ---------------      ----- ------------  ---------------
     7      0.783916  1 C  px                21     -0.510047  2 O  px         
     4      0.433118  1 C  px                18     -0.346678  2 O  px         

 Vector    9  Occ=0.000000D+00  E= 1.621842D-01  Symmetry=e
              MO Center= -2.1D-19, -1.9D-18, -4.9D-01, r^2= 1.7D+00
   Bfn.  Coefficient  Atom+Function         Bfn.  Coefficient  Atom+Function  
  ----- ------------  ---------------      ----- ------------  ---------------
     8      0.783916  1 C  py                22     -0.510047  2 O  py         
     5      0.433118  1 C  py                19     -0.346678  2 O  py         

 Vector   10  Occ=0.000000D+00  E= 3.837899D-01  Symmetry=a1
              MO Center= -5.3D-22, -3.3D-22, -4.6D-01, r^2= 3.1D+00
   Bfn.  Coefficient  Atom+Function         Bfn.  Coefficient  Atom+Function  
  ----- ------------  ---------------      ----- ------------  ---------------
    17      1.894764  2 O  s                  9     -1.743092  1 C  pz         
     3     -1.657123  1 C  s                 23     -0.563771  2 O  pz         

 Vector   11  Occ=0.000000D+00  E= 6.728970D-01  Symmetry=e
              MO Center=  1.3D-18, -7.1D-18, -5.9D-01, r^2= 1.8D+00
   Bfn.  Coefficient  Atom+Function         Bfn.  Coefficient  Atom+Function  
  ----- ------------  ---------------      ----- ------------  ---------------
     5      1.019592  1 C  py                 8     -0.990063  1 C  py         
     4     -0.188512  1 C  px                 7      0.183053  1 C  px         

 Vector   12  Occ=0.000000D+00  E= 6.728970D-01  Symmetry=e
              MO Center= -3.3D-18, -6.1D-19, -5.9D-01, r^2= 1.8D+00
   Bfn.  Coefficient  Atom+Function         Bfn.  Coefficient  Atom+Function  
  ----- ------------  ---------------      ----- ------------  ---------------
     4      1.019592  1 C  px                 7     -0.990063  1 C  px         
     5      0.188512  1 C  py                 8     -0.183053  1 C  py         

 Vector   13  Occ=0.000000D+00  E= 7.283392D-01  Symmetry=a1
              MO Center=  2.3D-21,  4.8D-21, -1.1D+00, r^2= 1.6D+00
   Bfn.  Coefficient  Atom+Function         Bfn.  Coefficient  Atom+Function  
  ----- ------------  ---------------      ----- ------------  ---------------
     3      1.630884  1 C  s                  2     -1.202274  1 C  s          
     6      0.644059  1 C  pz                 1     -0.469527  1 C  s          
    17     -0.419275  2 O  s                 23      0.368192  2 O  pz         
     9     -0.336313  1 C  pz         

 Vector   14  Occ=0.000000D+00  E= 1.030572D+00  Symmetry=a1
              MO Center=  5.5D-18,  9.7D-18,  7.6D-01, r^2= 1.3D+00
   Bfn.  Coefficient  Atom+Function         Bfn.  Coefficient  Atom+Function  
  ----- ------------  ---------------      ----- ------------  ---------------
    23      1.549547  2 O  pz                 2      1.207907  1 C  s          
     6      0.719524  1 C  pz                17     -0.663846  2 O  s          
     1      0.557067  1 C  s                 20     -0.278839  2 O  pz         
    16     -0.219221  2 O  s          

 Vector   15  Occ=0.000000D+00  E= 1.077869D+00  Symmetry=a1
              MO Center= -1.1D-16, -1.3D-16, -1.8D-01, r^2= 1.2D+00
   Bfn.  Coefficient  Atom+Function         Bfn.  Coefficient  Atom+Function  
  ----- ------------  ---------------      ----- ------------  ---------------
     3      0.778809  1 C  s                 17     -0.763359  2 O  s          
     9      0.666645  1 C  pz                20     -0.653515  2 O  pz         
    12      0.597096  1 C  d  0              23      0.581793  2 O  pz         
     6     -0.520435  1 C  pz                 2     -0.292226  1 C  s          

 Vector   16  Occ=0.000000D+00  E= 1.221227D+00  Symmetry=e
              MO Center=  1.5D-17, -1.7D-18,  5.2D-01, r^2= 1.5D+00
   Bfn.  Coefficient  Atom+Function         Bfn.  Coefficient  Atom+Function  
  ----- ------------  ---------------      ----- ------------  ---------------
    21      1.386261  2 O  px                18     -0.887608  2 O  px         
     7     -0.601801  1 C  px                13      0.308762  1 C  d  1       
    22     -0.158440  2 O  py         

 Vector   17  Occ=0.000000D+00  E= 1.221227D+00  Symmetry=e
              MO Center=  1.6D-18,  1.4D-17,  5.2D-01, r^2= 1.5D+00
   Bfn.  Coefficient  Atom+Function         Bfn.  Coefficient  Atom+Function  
  ----- ------------  ---------------      ----- ------------  ---------------
    22      1.386261  2 O  py                19     -0.887608  2 O  py         
     8     -0.601801  1 C  py                11     -0.308762  1 C  d -1       
    21      0.158440  2 O  px         


 center of mass
 --------------
 x =   0.00000000 y =   0.00000000 z =   0.04844880

 moments of inertia (a.u.)
 ------------------
          30.174465546280           0.000000000000           0.000000000000
           0.000000000000          30.174465546280           0.000000000000
           0.000000000000           0.000000000000           0.000000000000

  Mulliken analysis of the total density
  --------------------------------------

    Atom       Charge   Shell Charges
 -----------   ------   -------------------------------------------------------
    1 C    6     5.92   2.00  0.83  0.94  1.53  0.48  0.13
    2 O    8     8.08   2.00  0.87  0.85  2.79  1.55  0.03

       Multipole analysis of the density wrt the origin
       ------------------------------------------------

     L   x y z        total         open         nuclear
     -   - - -        -----         ----         -------
     0   0 0 0     -0.000000      0.000000     14.000000

     1   1 0 0      0.000000      0.000000      0.000000
     1   0 1 0      0.000000      0.000000      0.000000
     1   0 0 1     -0.057367      0.000000      0.680572

     2   2 0 0     -7.424034      0.000000      0.000000
     2   1 1 0      0.000000      0.000000      0.000000
     2   1 0 1      0.000000      0.000000      0.000000
     2   0 2 0     -7.424034      0.000000      0.000000
     2   0 1 1      0.000000      0.000000      0.000000
     2   0 0 2     -9.012753      0.000000     15.122375


 Parallel integral file used       4 records with       0 large values

 Line search: 
     step= 1.00 grad=-9.1D-09 hess= 4.6D-09 energy=   -112.750151 mode=accept  
 new step= 1.00                   predicted energy=   -112.750151
  no constraints, skipping    0.0000000000000000     
  no constraints, skipping    0.0000000000000000     
  no constraints, skipping    0.0000000000000000     

          --------
          Step   5
          --------


                         Geometry "geometry" -> "geometry"
                         ---------------------------------

 Output coordinates in angstroms (scale by  1.889725989 to convert to a.u.)

  No.       Tag          Charge          X              Y              Z
 ---- ---------------- ---------- -------------- -------------- --------------
    1 C                    6.0000     0.00000000     0.00000000    -0.60864299
    2 O                    8.0000     0.00000000     0.00000000     0.50150013

      Atomic Mass 
      ----------- 

      C                 12.000000
      O                 15.994910


 Effective nuclear repulsion energy (a.u.)      22.8803903619

            Nuclear Dipole moment (a.u.) 
            ----------------------------
        X                 Y               Z
 ---------------- ---------------- ----------------
     0.0000000000     0.0000000000     0.6805718142

      Symmetry information
      --------------------

 Group name             C4v       
 Group number             18
 Group order               8
 No. of unique centers     2

      Symmetry unique atoms

     1    2

                                 NWChem SCF Module
                                 -----------------


                                        CO



  ao basis        = "ao basis"
  functions       =    28
  atoms           =     2
  closed shells   =     7
  open shells     =     0
  charge          =   0.00
  wavefunction    = RHF 
  input vectors   = ./molecule.movecs
  output vectors  = ./molecule.movecs
  use symmetry    = T
  symmetry adapt  = T


 Summary of "ao basis" -> "ao basis" (spherical)
 ------------------------------------------------------------------------------
       Tag                 Description            Shells   Functions and Types
 ---------------- ------------------------------  ------  ---------------------
 C                          cc-pVDZ                  6       14   3s2p1d
 O                          cc-pVDZ                  6       14   3s2p1d


      Symmetry analysis of basis
      --------------------------

        a1         12
        a2          0
        b1          2
        b2          2
        e          12


  The SCF is already converged 

         Total SCF energy =   -112.750150619629

                              NWChem Gradients Module
                              -----------------------


                                        CO


  wavefunction    =   RHF     

  Using symmetry


                         RHF ENERGY GRADIENTS

    atom               coordinates                        gradient
                 x          y          z           x          y          z
   1 C       0.000000   0.000000  -1.150168    0.000000   0.000000   0.000002
   2 O       0.000000   0.000000   0.947698    0.000000   0.000000  -0.000002

                 ----------------------------------------
                 |  Time  |  1-e(secs)   |  2-e(secs)   |
                 ----------------------------------------
                 |  CPU   |       0.00   |       0.12   |
                 ----------------------------------------
                 |  WALL  |       0.00   |       0.12   |
                 ----------------------------------------
  no constraints, skipping    0.0000000000000000     

  Step       Energy      Delta E   Gmax     Grms     Xrms     Xmax   Walltime
  ---- ---------------- -------- -------- -------- -------- -------- --------
@    5    -112.75015062 -4.5D-09  0.00000  0.00000  0.00002  0.00004      1.5
                                     ok       ok       ok       ok  



                                Z-matrix (autoz)
                                -------- 

 Units are Angstrom for bonds and degrees for angles

      Type          Name      I     J     K     L     M      Value     Gradient
      ----------- --------  ----- ----- ----- ----- ----- ---------- ----------
    1 Stretch                  1     2                       1.11014   -0.00000


      ----------------------
      Optimization converged
      ----------------------


  Step       Energy      Delta E   Gmax     Grms     Xrms     Xmax   Walltime
  ---- ---------------- -------- -------- -------- -------- -------- --------
@    5    -112.75015062 -4.5D-09  0.00000  0.00000  0.00002  0.00004      1.5
                                     ok       ok       ok       ok  



                                Z-matrix (autoz)
                                -------- 

 Units are Angstrom for bonds and degrees for angles

      Type          Name      I     J     K     L     M      Value     Gradient
      ----------- --------  ----- ----- ----- ----- ----- ---------- ----------
    1 Stretch                  1     2                       1.11014   -0.00000



                         Geometry "geometry" -> "geometry"
                         ---------------------------------

 Output coordinates in angstroms (scale by  1.889725989 to convert to a.u.)

  No.       Tag          Charge          X              Y              Z
 ---- ---------------- ---------- -------------- -------------- --------------
    1 C                    6.0000     0.00000000     0.00000000    -0.60864299
    2 O                    8.0000     0.00000000     0.00000000     0.50150013

      Atomic Mass 
      ----------- 

      C                 12.000000
      O                 15.994910


 Effective nuclear repulsion energy (a.u.)      22.8803903619

            Nuclear Dipole moment (a.u.) 
            ----------------------------
        X                 Y               Z
 ---------------- ---------------- ----------------
     0.0000000000     0.0000000000     0.6805718142

      Symmetry information
      --------------------

 Group name             C4v       
 Group number             18
 Group order               8
 No. of unique centers     2

      Symmetry unique atoms

     1    2


                Final and change from initial internal coordinates
                --------------------------------------------------



                                Z-matrix (autoz)
                                -------- 

 Units are Angstrom for bonds and degrees for angles

      Type          Name      I     J     K     L     M      Value       Change
      ----------- --------  ----- ----- ----- ----- ----- ---------- ----------
    1 Stretch                  1     2                       1.11014    0.36014

 ==============================================================================
                                internuclear distances
 ------------------------------------------------------------------------------
       center one      |      center two      | atomic units |  angstroms
 ------------------------------------------------------------------------------
    2 O                |   1 C                |     2.09787  |     1.11014
 ------------------------------------------------------------------------------
                         number of included internuclear distances:          1
 ==============================================================================




 Task  times  cpu:        1.5s     wall:        1.5s


                                NWChem Input Module
                                -------------------


 Summary of allocated global arrays
-----------------------------------
  No active global arrays


MA_summarize_allocated_blocks: starting scan ...
MA_summarize_allocated_blocks: scan completed: 0 heap blocks, 0 stack blocks
MA usage statistics:

	allocation statistics:
					      heap	     stack
					      ----	     -----
	current number of blocks	         0	         0
	maximum number of blocks	        20	        29
	current total bytes		         0	         0
	maximum total bytes		   1586016	  22509608
	maximum total K-bytes		      1587	     22510
	maximum total M-bytes		         2	        23


                                     CITATION
                                     --------
                Please cite the following reference when publishing
                           results obtained with NWChem:

          E. Apra, E. J. Bylaska, W. A. de Jong, N. Govind, K. Kowalski,
       T. P. Straatsma, M. Valiev, H. J. J. van Dam, Y. Alexeev, J. Anchell,
       V. Anisimov, F. W. Aquino, R. Atta-Fynn, J. Autschbach, N. P. Bauman,
     J. C. Becca, D. E. Bernholdt, K. Bhaskaran-Nair, S. Bogatko, P. Borowski,
         J. Boschen, J. Brabec, A. Bruner, E. Cauet, Y. Chen, G. N. Chuev,
      C. J. Cramer, J. Daily, M. J. O. Deegan, T. H. Dunning Jr., M. Dupuis,
   K. G. Dyall, G. I. Fann, S. A. Fischer, A. Fonari, H. Fruchtl, L. Gagliardi,
      J. Garza, N. Gawande, S. Ghosh, K. Glaesemann, A. W. Gotz, J. Hammond,
       V. Helms, E. D. Hermes, K. Hirao, S. Hirata, M. Jacquelin, L. Jensen,
   B. G. Johnson, H. Jonsson, R. A. Kendall, M. Klemm, R. Kobayashi, V. Konkov,
      S. Krishnamoorthy, M. Krishnan, Z. Lin, R. D. Lins, R. J. Littlefield,
      A. J. Logsdail, K. Lopata, W. Ma, A. V. Marenich, J. Martin del Campo,
   D. Mejia-Rodriguez, J. E. Moore, J. M. Mullin, T. Nakajima, D. R. Nascimento,
    J. A. Nichols, P. J. Nichols, J. Nieplocha, A. Otero-de-la-Roza, B. Palmer,
    A. Panyala, T. Pirojsirikul, B. Peng, R. Peverati, J. Pittner, L. Pollack,
   R. M. Richard, P. Sadayappan, G. C. Schatz, W. A. Shelton, D. W. Silverstein,
   D. M. A. Smith, T. A. Soares, D. Song, M. Swart, H. L. Taylor, G. S. Thomas,
            V. Tipparaju, D. G. Truhlar, K. Tsemekhman, T. Van Voorhis,
      A. Vazquez-Mayagoitia, P. Verma, O. Villa, A. Vishnu, K. D. Vogiatzis,
        D. Wang, J. H. Weare, M. J. Williamson, T. L. Windus, K. Wolinski,
        A. T. Wong, Q. Wu, C. Yang, Q. Yu, M. Zacharias, Z. Zhang, Y. Zhao,
                                and R. J. Harrison
                        "NWChem: Past, present, and future
                         J. Chem. Phys. 152, 184102 (2020)
                               doi:10.1063/5.0004997

                                      AUTHORS
                                      -------
  E. Apra, E. J. Bylaska, N. Govind, K. Kowalski, M. Valiev, D. Mejia-Rodriguez,
       A. Kunitsa, N. P. Bauman, A. Panyala, W. A. de Jong, T. P. Straatsma,
   H. J. J. van Dam, D. Wang, T. L. Windus, J. Hammond, J. Autschbach, A. Woods,
    K. Bhaskaran-Nair, J. Brabec, K. Lopata, S. A. Fischer, S. Krishnamoorthy,
     M. Jacquelin, W. Ma, M. Klemm, O. Villa, Y. Chen, V. Anisimov, F. Aquino,
     S. Hirata, M. T. Hackler, E. Hermes, L. Jensen, J. E. Moore, J. C. Becca,
      V. Konjkov, T. Risthaus, M. Malagoli, A. Marenich, A. Otero-de-la-Roza,
        J. Mullin, P. Nichols, R. Peverati, J. Pittner, Y. Zhao, P.-D. Fan,
        A. Fonari, M. J. Williamson, R. J. Harrison, J. R. Rehr, M. Dupuis,
     D. Silverstein, D. M. A. Smith, J. Nieplocha, V. Tipparaju, M. Krishnan,
     B. E. Van Kuiken, A. Vazquez-Mayagoitia, M. Swart, Q. Wu, T. Van Voorhis,
     A. A. Auer, M. Nooijen, L. D. Crosby, E. Brown, G. Cisneros, G. I. Fann,
   H. Fruchtl, J. Garza, K. Hirao, R. A. Kendall, J. A. Nichols, K. Tsemekhman,
    K. Wolinski, J. Anchell, D. E. Bernholdt, P. Borowski, T. Clark, D. Clerc,
   H. Dachsel, M. J. O. Deegan, K. Dyall, D. Elwood, E. Glendening, M. Gutowski,
   A. C. Hess, J. Jaffe, B. G. Johnson, J. Ju, R. Kobayashi, R. Kutteh, Z. Lin,
   R. Littlefield, X. Long, B. Meng, T. Nakajima, S. Niu, L. Pollack, M. Rosing,
   K. Glaesemann, G. Sandrone, M. Stave, H. Taylor, G. Thomas, J. H. van Lenthe,
                               A. T. Wong, Z. Zhang.

 Total times  cpu:        1.5s     wall:        1.5s
