 argument  1 = CO_example.txt



============================== echo of input deck ==============================
echo

start molecule

title "CO"
memory total 2 gb

charge 0
geometry units angstrom print xyz
 C 0.00000 0.00000 0.00000
 O 0.00000 0.00000 1.0
end

basis spherical
 * library cc-pVDZ
end

task scf optimize
================================================================================


                                         
                                         


             Northwest Computational Chemistry Package (NWChem) 7.2.2
             --------------------------------------------------------


                    Environmental Molecular Sciences Laboratory
                       Pacific Northwest National Laboratory
                                Richland, WA 99352

                              Copyright (c) 1994-2022
                       Pacific Northwest National Laboratory
                            Battelle Memorial Institute

             NWChem is an open-source computational chemistry package
                        distributed under the terms of the
                      Educational Community License (ECL) 2.0
             A copy of the license is included with this distribution
                              in the LICENSE.TXT file

                                  ACKNOWLEDGMENT
                                  --------------

            This software and its documentation were developed at the
            EMSL at Pacific Northwest National Laboratory, a multiprogram
            national laboratory, operated for the U.S. Department of Energy
            by Battelle under Contract Number DE-AC05-76RL01830. Support
            for this work was provided by the Department of Energy Office
            of Biological and Environmental Research, Office of Basic
            Energy Sciences, and the Office of Advanced Scientific Computing.


           Job information
           ---------------

    hostname        = dhcp-10-22-10-180.wlan.ntnu.no
    program         = nwchem
    date            = Thu Mar 21 11:32:15 2024

    compiled        = Sun_Dec_10_10:51:21_2023
    source          = /private/tmp/nwchem-20231210-5888-3uvdjr/nwchem-7.2.2
    nwchem branch   = 7.2.2
    nwchem revision = 74936fb9
    ga revision     = 5.8.0
    use scalapack   = T
    input           = CO_example.txt
    prefix          = molecule.
    data base       = ./molecule.db
    status          = startup
    nproc           =        4
    time left       =     -1s



           Memory information
           ------------------

    heap     =   67108860 doubles =    512.0 Mbytes
    stack    =   67108865 doubles =    512.0 Mbytes
    global   =  134217728 doubles =   1024.0 Mbytes (distinct from heap & stack)
    total    =  268435453 doubles =   2048.0 Mbytes
    verify   = yes
    hardfail = no 


           Directory information
           ---------------------

  0 permanent = .
  0 scratch   = .




                                NWChem Input Module
                                -------------------


                                        CO
                                        --

 Scaling coordinates for geometry "geometry" by  1.889725989
 (inverse scale =  0.529177249)

 ORDER OF PRIMARY AXIS IS BEING SET TO 4
 C4V symmetry detected

          ------
          auto-z
          ------
  no constraints, skipping    0.0000000000000000     
  no constraints, skipping    0.0000000000000000     


                             Geometry "geometry" -> ""
                             -------------------------

 Output coordinates in angstroms (scale by  1.889725989 to convert to a.u.)

  No.       Tag          Charge          X              Y              Z
 ---- ---------------- ---------- -------------- -------------- --------------
    1 C                    6.0000     0.00000000     0.00000000    -0.57142857
    2 O                    8.0000     0.00000000     0.00000000     0.42857143

      Atomic Mass 
      ----------- 

      C                 12.000000
      O                 15.994910


 Effective nuclear repulsion energy (a.u.)      25.4005079520

            Nuclear Dipole moment (a.u.) 
            ----------------------------
        X                 Y               Z
 ---------------- ---------------- ----------------
     0.0000000000     0.0000000000     0.0000000000

      Symmetry information
      --------------------

 Group name             C4v       
 Group number             18
 Group order               8
 No. of unique centers     2

      Symmetry unique atoms

     1    2



                                Z-matrix (autoz)
                                -------- 

 Units are Angstrom for bonds and degrees for angles

      Type          Name      I     J     K     L     M      Value
      ----------- --------  ----- ----- ----- ----- ----- ----------
    1 Stretch                  1     2                       1.00000


            XYZ format geometry
            -------------------
     2
 geometry
 C                     0.00000000     0.00000000    -0.57142857
 O                     0.00000000     0.00000000     0.42857143

 ==============================================================================
                                internuclear distances
 ------------------------------------------------------------------------------
       center one      |      center two      | atomic units |  angstroms
 ------------------------------------------------------------------------------
    2 O                |   1 C                |     1.88973  |     1.00000
 ------------------------------------------------------------------------------
                         number of included internuclear distances:          1
 ==============================================================================



  library name resolved from: .nwchemrc
  library file name is: </opt/homebrew/Cellar/nwchem/7.2.2/share/nwchem/libraries/>
  


 Summary of "ao basis" -> "" (spherical)
 ------------------------------------------------------------------------------
       Tag                 Description            Shells   Functions and Types
 ---------------- ------------------------------  ------  ---------------------
 *                          cc-pVDZ                   on all atoms 




                           NWChem Geometry Optimization
                           ----------------------------




                                        CO


  no constraints, skipping    0.0000000000000000     
 maximum gradient threshold         (gmax) =   0.000450
 rms gradient threshold             (grms) =   0.000300
 maximum cartesian step threshold   (xmax) =   0.001800
 rms cartesian step threshold       (xrms) =   0.001200
 fixed trust radius                (trust) =   0.300000
 maximum step size to saddle      (sadstp) =   0.100000
 energy precision                  (eprec) =   1.0D-07
 maximum number of steps          (nptopt) =   40
 initial hessian option           (inhess) =    0
 line search option               (linopt) =    1
 hessian update option            (modupd) =    1
 saddle point option              (modsad) =    0
 initial eigen-mode to follow     (moddir) =    0
 initial variable to follow       (vardir) =    0
 follow first negative mode     (firstneg) =    T
 apply conjugacy                    (opcg) =    F
 source of zmatrix                         =   autoz   


          -------------------
          Energy Minimization
          -------------------


 Names of Z-matrix variables 
    1         

 Variables with the same non-blank name are constrained to be equal


 Using old Hessian from previous optimization

          --------
          Step   0
          --------


                         Geometry "geometry" -> "geometry"
                         ---------------------------------

 Output coordinates in angstroms (scale by  1.889725989 to convert to a.u.)

  No.       Tag          Charge          X              Y              Z
 ---- ---------------- ---------- -------------- -------------- --------------
    1 C                    6.0000     0.00000000     0.00000000    -0.57142857
    2 O                    8.0000     0.00000000     0.00000000     0.42857143

      Atomic Mass 
      ----------- 

      C                 12.000000
      O                 15.994910


 Effective nuclear repulsion energy (a.u.)      25.4005079520

            Nuclear Dipole moment (a.u.) 
            ----------------------------
        X                 Y               Z
 ---------------- ---------------- ----------------
     0.0000000000     0.0000000000     0.0000000000

      Symmetry information
      --------------------

 Group name             C4v       
 Group number             18
 Group order               8
 No. of unique centers     2

      Symmetry unique atoms

     1    2

                      Basis "ao basis" -> "ao basis" (spherical)
                      -----
  C (Carbon)
  ----------
            Exponent  Coefficients 
       -------------- ---------------------------------------------------------
  1 S  6.66500000E+03  0.000692
  1 S  1.00000000E+03  0.005329
  1 S  2.28000000E+02  0.027077
  1 S  6.47100000E+01  0.101718
  1 S  2.10600000E+01  0.274740
  1 S  7.49500000E+00  0.448564
  1 S  2.79700000E+00  0.285074
  1 S  5.21500000E-01  0.015204

  2 S  6.66500000E+03 -0.000146
  2 S  1.00000000E+03 -0.001154
  2 S  2.28000000E+02 -0.005725
  2 S  6.47100000E+01 -0.023312
  2 S  2.10600000E+01 -0.063955
  2 S  7.49500000E+00 -0.149981
  2 S  2.79700000E+00 -0.127262
  2 S  5.21500000E-01  0.544529

  3 S  1.59600000E-01  1.000000

  4 P  9.43900000E+00  0.038109
  4 P  2.00200000E+00  0.209480
  4 P  5.45600000E-01  0.508557

  5 P  1.51700000E-01  1.000000

  6 D  5.50000000E-01  1.000000

  O (Oxygen)
  ----------
            Exponent  Coefficients 
       -------------- ---------------------------------------------------------
  1 S  1.17200000E+04  0.000710
  1 S  1.75900000E+03  0.005470
  1 S  4.00800000E+02  0.027837
  1 S  1.13700000E+02  0.104800
  1 S  3.70300000E+01  0.283062
  1 S  1.32700000E+01  0.448719
  1 S  5.02500000E+00  0.270952
  1 S  1.01300000E+00  0.015458

  2 S  1.17200000E+04 -0.000160
  2 S  1.75900000E+03 -0.001263
  2 S  4.00800000E+02 -0.006267
  2 S  1.13700000E+02 -0.025716
  2 S  3.70300000E+01 -0.070924
  2 S  1.32700000E+01 -0.165411
  2 S  5.02500000E+00 -0.116955
  2 S  1.01300000E+00  0.557368

  3 S  3.02300000E-01  1.000000

  4 P  1.77000000E+01  0.043018
  4 P  3.85400000E+00  0.228913
  4 P  1.04600000E+00  0.508728

  5 P  2.75300000E-01  1.000000

  6 D  1.18500000E+00  1.000000



 Summary of "ao basis" -> "ao basis" (spherical)
 ------------------------------------------------------------------------------
       Tag                 Description            Shells   Functions and Types
 ---------------- ------------------------------  ------  ---------------------
 C                          cc-pVDZ                  6       14   3s2p1d
 O                          cc-pVDZ                  6       14   3s2p1d


                                 NWChem SCF Module
                                 -----------------


                                        CO



  ao basis        = "ao basis"
  functions       =    28
  atoms           =     2
  closed shells   =     7
  open shells     =     0
  charge          =   0.00
  wavefunction    = RHF 
  input vectors   = atomic
  output vectors  = ./molecule.movecs
  use symmetry    = T
  symmetry adapt  = T


 Summary of "ao basis" -> "ao basis" (spherical)
 ------------------------------------------------------------------------------
       Tag                 Description            Shells   Functions and Types
 ---------------- ------------------------------  ------  ---------------------
 C                          cc-pVDZ                  6       14   3s2p1d
 O                          cc-pVDZ                  6       14   3s2p1d


      Symmetry analysis of basis
      --------------------------

        a1         12
        a2          0
        b1          2
        b2          2
        e          12


 Forming initial guess at       0.1s


      Superposition of Atomic Density Guess
      -------------------------------------

 Sum of atomic energies:        -112.42981721

      Non-variational initial energy
      ------------------------------

 Total energy =    -113.259133
 1-e energy   =    -202.765558
 2-e energy   =      64.105916
 HOMO         =      -0.398879
 LUMO         =       0.082468


      Symmetry analysis of molecular orbitals - initial
      -------------------------------------------------


 !! scf_movecs_sym_adapt:    4 vectors were symmetry contaminated

  Symmetry fudging

 !! scf_movecs_sym_adapt:    4 vectors were symmetry contaminated

  Numbering of irreducible representations: 

     1 a1          2 a2          3 b1          4 b2          5 e       

  Orbital symmetries:

     1 a1          2 a1          3 a1          4 a1          5 e       
     6 e           7 a1          8 e           9 e          10 a1      
    11 e          12 e          13 a1         14 a1         15 e       
    16 e          17 a1      


 Starting SCF solution at       0.1s



 ----------------------------------------------
         Quadratically convergent ROHF

 Convergence threshold     :          1.000E-04
 Maximum no. of iterations :           30
 Final Fock-matrix accuracy:          1.000E-07
 ----------------------------------------------


 #quartets = 3.081D+03 #integrals = 2.185D+04 #direct =  0.0% #cached =100.0%


 Integral file          = ./molecule.aoints.0
 Record size in doubles =  65536        No. of integs per rec  =  43688
 Max. records in memory =      3        Max. records in file   = 155303
 No. of bits per label  =      8        No. of bits per value  =     64


File balance: exchanges=     0  moved=     0  time=   0.0


              iter       energy          gnorm     gmax       time
             ----- ------------------- --------- --------- --------
                 1     -112.6872627449  6.20D-01  2.17D-01      0.1
                 2     -112.7051099102  1.74D-01  7.13D-02      0.1
                 3     -112.7071294818  7.60D-03  3.52D-03      0.1
                 4     -112.7071332882  2.03D-05  6.62D-06      0.1


       Final RHF  results 
       ------------------ 

         Total SCF energy =   -112.707133288178
      One-electron energy =   -203.561004192286
      Two-electron energy =     65.453362952123
 Nuclear repulsion energy =     25.400507951986

        Time for solution =      0.1s



       Symmetry analysis of molecular orbitals - final
       -----------------------------------------------

  Numbering of irreducible representations: 

     1 a1          2 a2          3 b1          4 b2          5 e       

  Orbital symmetries:

     1 a1          2 a1          3 a1          4 a1          5 e       
     6 e           7 a1          8 e           9 e          10 a1      
    11 e          12 e          13 a1         14 a1         15 e       
    16 e          17 a1      

             Final eigenvalues
             -----------------

              1      
    1  -20.6627
    2  -11.3145
    3   -1.6144
    4   -0.8137
    5   -0.6960
    6   -0.6960
    7   -0.5298
    8    0.2105
    9    0.2105
   10    0.3899
   11    0.6779
   12    0.6779
   13    0.7355
   14    1.0171
   15    1.2020
   16    1.2020
   17    1.2813

                       ROHF Final Molecular Orbital Analysis
                       -------------------------------------

 Vector    2  Occ=2.000000D+00  E=-1.131452D+01  Symmetry=a1
              MO Center=  1.3D-18, -3.4D-19, -5.7D-01, r^2= 2.7D-02
   Bfn.  Coefficient  Atom+Function         Bfn.  Coefficient  Atom+Function  
  ----- ------------  ---------------      ----- ------------  ---------------
     1      1.001797  1 C  s          

 Vector    3  Occ=2.000000D+00  E=-1.614366D+00  Symmetry=a1
              MO Center= -8.2D-18, -2.0D-17,  1.2D-01, r^2= 3.7D-01
   Bfn.  Coefficient  Atom+Function         Bfn.  Coefficient  Atom+Function  
  ----- ------------  ---------------      ----- ------------  ---------------
    16      0.412358  2 O  s                 17      0.284352  2 O  s          
     6      0.243969  1 C  pz                 2      0.232956  1 C  s          
    20     -0.199316  2 O  pz         

 Vector    4  Occ=2.000000D+00  E=-8.137472D-01  Symmetry=a1
              MO Center=  4.9D-18, -1.2D-16,  5.9D-01, r^2= 5.3D-01
   Bfn.  Coefficient  Atom+Function         Bfn.  Coefficient  Atom+Function  
  ----- ------------  ---------------      ----- ------------  ---------------
    20      0.545708  2 O  pz                17      0.411902  2 O  s          
    23      0.266045  2 O  pz                 2     -0.237379  1 C  s          
    16      0.235750  2 O  s                  6     -0.157058  1 C  pz         

 Vector    5  Occ=2.000000D+00  E=-6.959985D-01  Symmetry=e
              MO Center= -2.1D-17, -9.2D-17,  1.7D-01, r^2= 7.1D-01
   Bfn.  Coefficient  Atom+Function         Bfn.  Coefficient  Atom+Function  
  ----- ------------  ---------------      ----- ------------  ---------------
    19      0.429497  2 O  py                18      0.341153  2 O  px         
     5      0.252075  1 C  py                22      0.250519  2 O  py         
     4      0.200225  1 C  px                21      0.198990  2 O  px         

 Vector    6  Occ=2.000000D+00  E=-6.959985D-01  Symmetry=e
              MO Center= -2.4D-17,  4.7D-17,  1.7D-01, r^2= 7.1D-01
   Bfn.  Coefficient  Atom+Function         Bfn.  Coefficient  Atom+Function  
  ----- ------------  ---------------      ----- ------------  ---------------
    18      0.429497  2 O  px                19     -0.341153  2 O  py         
     4      0.252075  1 C  px                21      0.250519  2 O  px         
     5     -0.200225  1 C  py                22     -0.198990  2 O  py         

 Vector    7  Occ=2.000000D+00  E=-5.298427D-01  Symmetry=a1
              MO Center=  3.8D-16,  9.9D-17, -9.4D-01, r^2= 8.0D-01
   Bfn.  Coefficient  Atom+Function         Bfn.  Coefficient  Atom+Function  
  ----- ------------  ---------------      ----- ------------  ---------------
     3      0.614223  1 C  s                  6     -0.442955  1 C  pz         
     2      0.302378  1 C  s                 20      0.189260  2 O  pz         
     9     -0.168386  1 C  pz         

 Vector    8  Occ=0.000000D+00  E= 2.104909D-01  Symmetry=e
              MO Center= -1.9D-17,  1.0D-16, -5.2D-01, r^2= 1.8D+00
   Bfn.  Coefficient  Atom+Function         Bfn.  Coefficient  Atom+Function  
  ----- ------------  ---------------      ----- ------------  ---------------
     8      0.885106  1 C  py                22     -0.575665  2 O  py         
     5      0.379944  1 C  py                19     -0.344574  2 O  py         
     7     -0.163933  1 C  px         

 Vector    9  Occ=0.000000D+00  E= 2.104909D-01  Symmetry=e
              MO Center= -2.1D-16, -3.8D-17, -5.2D-01, r^2= 1.8D+00
   Bfn.  Coefficient  Atom+Function         Bfn.  Coefficient  Atom+Function  
  ----- ------------  ---------------      ----- ------------  ---------------
     7      0.885106  1 C  px                21     -0.575665  2 O  px         
     4      0.379944  1 C  px                18     -0.344574  2 O  px         
     8      0.163933  1 C  py         

 Vector   10  Occ=0.000000D+00  E= 3.898717D-01  Symmetry=a1
              MO Center= -7.7D-18, -1.6D-18, -3.8D-01, r^2= 3.1D+00
   Bfn.  Coefficient  Atom+Function         Bfn.  Coefficient  Atom+Function  
  ----- ------------  ---------------      ----- ------------  ---------------
    17      2.058765  2 O  s                  3     -1.783018  1 C  s          
     9     -1.768738  1 C  pz                23     -0.453010  2 O  pz         

 Vector   11  Occ=0.000000D+00  E= 6.779250D-01  Symmetry=e
              MO Center=  1.1D-15,  1.1D-15, -4.8D-01, r^2= 1.8D+00
   Bfn.  Coefficient  Atom+Function         Bfn.  Coefficient  Atom+Function  
  ----- ------------  ---------------      ----- ------------  ---------------
     5      0.740997  1 C  py                 4      0.730075  1 C  px         
     8     -0.658143  1 C  py                 7     -0.648441  1 C  px         

 Vector   12  Occ=0.000000D+00  E= 6.779250D-01  Symmetry=e
              MO Center= -4.8D-17,  4.7D-17, -4.8D-01, r^2= 1.8D+00
   Bfn.  Coefficient  Atom+Function         Bfn.  Coefficient  Atom+Function  
  ----- ------------  ---------------      ----- ------------  ---------------
     4      0.740997  1 C  px                 5     -0.730075  1 C  py         
     7     -0.658143  1 C  px                 8      0.648441  1 C  py         

 Vector   13  Occ=0.000000D+00  E= 7.354615D-01  Symmetry=a1
              MO Center= -1.3D-15, -1.2D-15, -1.1D+00, r^2= 1.7D+00
   Bfn.  Coefficient  Atom+Function         Bfn.  Coefficient  Atom+Function  
  ----- ------------  ---------------      ----- ------------  ---------------
     3      1.669529  1 C  s                  2     -1.020288  1 C  s          
     6      0.699322  1 C  pz                17     -0.615210  2 O  s          
    23      0.543628  2 O  pz                 1     -0.371257  1 C  s          
     9     -0.348697  1 C  pz                20     -0.151466  2 O  pz         

 Vector   14  Occ=0.000000D+00  E= 1.017101D+00  Symmetry=a1
              MO Center=  7.5D-16, -3.5D-16,  7.7D-01, r^2= 1.4D+00
   Bfn.  Coefficient  Atom+Function         Bfn.  Coefficient  Atom+Function  
  ----- ------------  ---------------      ----- ------------  ---------------
    23      1.687767  2 O  pz                 2      1.243985  1 C  s          
    17     -1.050562  2 O  s                  1      0.620627  1 C  s          
    20     -0.500199  2 O  pz                 3      0.340630  1 C  s          
     6      0.318008  1 C  pz                 9      0.227899  1 C  pz         
    12      0.207223  1 C  d  0       

 Vector   15  Occ=0.000000D+00  E= 1.201992D+00  Symmetry=e
              MO Center= -1.1D-16,  4.7D-16,  3.9D-01, r^2= 1.6D+00
   Bfn.  Coefficient  Atom+Function         Bfn.  Coefficient  Atom+Function  
  ----- ------------  ---------------      ----- ------------  ---------------
    22      1.455318  2 O  py                19     -0.814756  2 O  py         
     8     -0.723900  1 C  py                11     -0.397315  1 C  d -1       
    21     -0.339857  2 O  px                18      0.190268  2 O  px         
     7      0.169051  1 C  px         

 Vector   16  Occ=0.000000D+00  E= 1.201992D+00  Symmetry=e
              MO Center= -6.9D-16, -1.6D-16,  3.9D-01, r^2= 1.6D+00
   Bfn.  Coefficient  Atom+Function         Bfn.  Coefficient  Atom+Function  
  ----- ------------  ---------------      ----- ------------  ---------------
    21      1.455318  2 O  px                18     -0.814756  2 O  px         
     7     -0.723900  1 C  px                13      0.397315  1 C  d  1       
    22      0.339857  2 O  py                19     -0.190268  2 O  py         
     8     -0.169051  1 C  py         

 Vector   17  Occ=0.000000D+00  E= 1.281276D+00  Symmetry=a1
              MO Center=  1.4D-16,  1.2D-16, -3.8D-01, r^2= 1.0D+00
   Bfn.  Coefficient  Atom+Function         Bfn.  Coefficient  Atom+Function  
  ----- ------------  ---------------      ----- ------------  ---------------
     2      0.766419  1 C  s                 12     -0.736130  1 C  d  0       
     3     -0.690090  1 C  s                  6      0.650845  1 C  pz         
     9     -0.646078  1 C  pz                17      0.526941  2 O  s          
    20      0.369583  2 O  pz                 1      0.302601  1 C  s          
    23      0.244186  2 O  pz                16     -0.167453  2 O  s          


 center of mass
 --------------
 x =   0.00000000 y =   0.00000000 z =  -0.00014725

 moments of inertia (a.u.)
 ------------------
          24.483958951089           0.000000000000           0.000000000000
           0.000000000000          24.483958951089           0.000000000000
           0.000000000000           0.000000000000           0.000000000000

  Mulliken analysis of the total density
  --------------------------------------

    Atom       Charge   Shell Charges
 -----------   ------   -------------------------------------------------------
    1 C    6     6.04   2.00  0.80  0.97  1.69  0.44  0.14
    2 O    8     7.96   2.00  0.87  0.78  2.89  1.39  0.04

       Multipole analysis of the density wrt the origin
       ------------------------------------------------

     L   x y z        total         open         nuclear
     -   - - -        -----         ----         -------
     0   0 0 0     -0.000000      0.000000     14.000000

     1   1 0 0     -0.000000      0.000000      0.000000
     1   0 1 0      0.000000      0.000000      0.000000
     1   0 0 1      0.145012      0.000000      0.000000

     2   2 0 0     -7.198957      0.000000      0.000000
     2   1 1 0     -0.000000      0.000000      0.000000
     2   1 0 1      0.000000      0.000000      0.000000
     2   0 2 0     -7.198957      0.000000      0.000000
     2   0 1 1      0.000000      0.000000      0.000000
     2   0 0 2     -8.901512      0.000000     12.243649


 Parallel integral file used       4 records with       0 large values

                              NWChem Gradients Module
                              -----------------------


                                        CO


  wavefunction    =   RHF     

  Using symmetry


                         RHF ENERGY GRADIENTS

    atom               coordinates                        gradient
                 x          y          z           x          y          z
   1 C       0.000000   0.000000  -1.079843    0.000000   0.000000   0.469060
   2 O       0.000000   0.000000   0.809883    0.000000   0.000000  -0.469060

                 ----------------------------------------
                 |  Time  |  1-e(secs)   |  2-e(secs)   |
                 ----------------------------------------
                 |  CPU   |       0.00   |       0.13   |
                 ----------------------------------------
                 |  WALL  |       0.00   |       0.13   |
                 ----------------------------------------
  no constraints, skipping    0.0000000000000000     

@ Step       Energy      Delta E   Gmax     Grms     Xrms     Xmax   Walltime
@ ---- ---------------- -------- -------- -------- -------- -------- --------
@    0    -112.70713329  0.0D+00  0.46906  0.46906  0.00000  0.00000      0.3
                                                                    



                                Z-matrix (autoz)
                                -------- 

 Units are Angstrom for bonds and degrees for angles

      Type          Name      I     J     K     L     M      Value     Gradient
      ----------- --------  ----- ----- ----- ----- ----- ---------- ----------
    1 Stretch                  1     2                       1.00000   -0.46906

 Restricting large step in mode    1 eval= 1.6D+00 step= 3.0D-01 new= 3.0D-01
  no constraints, skipping    0.0000000000000000     
  no constraints, skipping    0.0000000000000000     
  no constraints, skipping    0.0000000000000000     
                                 NWChem SCF Module
                                 -----------------


                                        CO



  ao basis        = "ao basis"
  functions       =    28
  atoms           =     2
  closed shells   =     7
  open shells     =     0
  charge          =   0.00
  wavefunction    = RHF 
  input vectors   = ./molecule.movecs
  output vectors  = ./molecule.movecs
  use symmetry    = T
  symmetry adapt  = T


 Summary of "ao basis" -> "ao basis" (spherical)
 ------------------------------------------------------------------------------
       Tag                 Description            Shells   Functions and Types
 ---------------- ------------------------------  ------  ---------------------
 C                          cc-pVDZ                  6       14   3s2p1d
 O                          cc-pVDZ                  6       14   3s2p1d


      Symmetry analysis of basis
      --------------------------

        a1         12
        a2          0
        b1          2
        b2          2
        e          12


 Forming initial guess at       0.3s


 Loading old vectors from job with title :

CO


      Symmetry analysis of molecular orbitals - initial
      -------------------------------------------------

  Numbering of irreducible representations: 

     1 a1          2 a2          3 b1          4 b2          5 e       

  Orbital symmetries:

     1 a1          2 a1          3 a1          4 a1          5 e       
     6 e           7 a1          8 e           9 e          10 a1      
    11 e          12 e          13 a1         14 a1         15 e       
    16 e          17 a1      


 Starting SCF solution at       0.3s



 ----------------------------------------------
         Quadratically convergent ROHF

 Convergence threshold     :          1.000E-04
 Maximum no. of iterations :           30
 Final Fock-matrix accuracy:          1.000E-07
 ----------------------------------------------

  avail0,avail1,avail0-avail1                326943               326943                    0
  avail0,avail1,avail0-avail1                326943               326958                  -15
  avail0,avail1,avail0-avail1                326943               326958                  -15
  avail0,avail1,avail0-avail1                326943               326958                  -15

 #quartets = 3.081D+03 #integrals = 2.185D+04 #direct =  0.0% #cached =100.0%


 Integral file          = ./molecule.aoints.0
 Record size in doubles =  65536        No. of integs per rec  =  43688
 Max. records in memory =      3        Max. records in file   =   9704
 No. of bits per label  =      8        No. of bits per value  =     64


File balance: exchanges=     0  moved=     0  time=   0.0


              iter       energy          gnorm     gmax       time
             ----- ------------------- --------- --------- --------
                 1     -112.7208377096  6.09D-01  1.97D-01      0.3
                 2     -112.7425418505  1.68D-01  5.05D-02      0.4
                 3     -112.7443086860  1.58D-02  6.93D-03      0.4
                 4     -112.7443366554  4.76D-05  1.92D-05      0.4


       Final RHF  results 
       ------------------ 

         Total SCF energy =   -112.744336655361
      One-electron energy =   -197.039258226300
      Two-electron energy =     62.374370666245
 Nuclear repulsion energy =     21.920550904694

        Time for solution =      0.1s



       Symmetry analysis of molecular orbitals - final
       -----------------------------------------------

  Numbering of irreducible representations: 

     1 a1          2 a2          3 b1          4 b2          5 e       

  Orbital symmetries:

     1 a1          2 a1          3 a1          4 a1          5 e       
     6 e           7 a1          8 e           9 e          10 a1      
    11 e          12 e          13 a1         14 a1         15 a1      
    16 e          17 e       

             Final eigenvalues
             -----------------

              1      
    1  -20.6699
    2  -11.3790
    3   -1.5019
    4   -0.7993
    5   -0.6214
    6   -0.6214
    7   -0.5522
    8    0.1422
    9    0.1422
   10    0.3802
   11    0.6711
   12    0.6711
   13    0.7232
   14    0.9733
   15    1.0616
   16    1.2296
   17    1.2296

                       ROHF Final Molecular Orbital Analysis
                       -------------------------------------

 Vector    2  Occ=2.000000D+00  E=-1.137902D+01  Symmetry=a1
              MO Center=  3.2D-18, -4.1D-19, -6.5D-01, r^2= 2.7D-02
   Bfn.  Coefficient  Atom+Function         Bfn.  Coefficient  Atom+Function  
  ----- ------------  ---------------      ----- ------------  ---------------
     1      1.001185  1 C  s          

 Vector    3  Occ=2.000000D+00  E=-1.501891D+00  Symmetry=a1
              MO Center=  6.7D-18, -3.9D-17,  2.0D-01, r^2= 4.4D-01
   Bfn.  Coefficient  Atom+Function         Bfn.  Coefficient  Atom+Function  
  ----- ------------  ---------------      ----- ------------  ---------------
    16      0.422019  2 O  s                 17      0.361590  2 O  s          
     2      0.212053  1 C  s                  6      0.204475  1 C  pz         
    20     -0.151598  2 O  pz         

 Vector    4  Occ=2.000000D+00  E=-7.993174D-01  Symmetry=a1
              MO Center=  1.7D-18,  6.1D-19,  4.7D-01, r^2= 8.0D-01
   Bfn.  Coefficient  Atom+Function         Bfn.  Coefficient  Atom+Function  
  ----- ------------  ---------------      ----- ------------  ---------------
    20      0.482617  2 O  pz                17      0.379555  2 O  s          
     2     -0.314305  1 C  s                 23      0.258370  2 O  pz         
    16      0.238823  2 O  s                  3     -0.160959  1 C  s          

 Vector    5  Occ=2.000000D+00  E=-6.214433D-01  Symmetry=e
              MO Center=  1.6D-18,  1.8D-19,  2.3D-01, r^2= 8.0D-01
   Bfn.  Coefficient  Atom+Function         Bfn.  Coefficient  Atom+Function  
  ----- ------------  ---------------      ----- ------------  ---------------
    18      0.544734  2 O  px                21      0.359440  2 O  px         
     4      0.287575  1 C  px         

 Vector    6  Occ=2.000000D+00  E=-6.214433D-01  Symmetry=e
              MO Center=  1.9D-17, -3.1D-17,  2.3D-01, r^2= 8.0D-01
   Bfn.  Coefficient  Atom+Function         Bfn.  Coefficient  Atom+Function  
  ----- ------------  ---------------      ----- ------------  ---------------
    19      0.544734  2 O  py                22      0.359440  2 O  py         
     5      0.287575  1 C  py         

 Vector    7  Occ=2.000000D+00  E=-5.521972D-01  Symmetry=a1
              MO Center=  2.2D-16,  6.6D-17, -8.7D-01, r^2= 9.9D-01
   Bfn.  Coefficient  Atom+Function         Bfn.  Coefficient  Atom+Function  
  ----- ------------  ---------------      ----- ------------  ---------------
     3      0.568192  1 C  s                  6     -0.454510  1 C  pz         
     2      0.288898  1 C  s                 20      0.269965  2 O  pz         
    23      0.164985  2 O  pz                 9     -0.162403  1 C  pz         

 Vector    8  Occ=0.000000D+00  E= 1.421745D-01  Symmetry=e
              MO Center= -2.0D-16, -4.8D-17, -5.0D-01, r^2= 1.6D+00
   Bfn.  Coefficient  Atom+Function         Bfn.  Coefficient  Atom+Function  
  ----- ------------  ---------------      ----- ------------  ---------------
     7      0.728729  1 C  px                21     -0.471123  2 O  px         
     4      0.439132  1 C  px                18     -0.336427  2 O  px         
     8      0.176860  1 C  py         

 Vector    9  Occ=0.000000D+00  E= 1.421745D-01  Symmetry=e
              MO Center= -1.9D-17,  7.9D-17, -5.0D-01, r^2= 1.6D+00
   Bfn.  Coefficient  Atom+Function         Bfn.  Coefficient  Atom+Function  
  ----- ------------  ---------------      ----- ------------  ---------------
     8      0.728729  1 C  py                22     -0.471123  2 O  py         
     5      0.439132  1 C  py                19     -0.336427  2 O  py         
     7     -0.176860  1 C  px         

 Vector   10  Occ=0.000000D+00  E= 3.802446D-01  Symmetry=a1
              MO Center=  3.7D-18, -3.5D-18, -5.2D-01, r^2= 3.1D+00
   Bfn.  Coefficient  Atom+Function         Bfn.  Coefficient  Atom+Function  
  ----- ------------  ---------------      ----- ------------  ---------------
    17      1.810812  2 O  s                  9     -1.719713  1 C  pz         
     3     -1.587585  1 C  s                 23     -0.607832  2 O  pz         

 Vector   11  Occ=0.000000D+00  E= 6.710800D-01  Symmetry=e
              MO Center= -4.2D-17, -1.3D-17, -6.6D-01, r^2= 1.9D+00
   Bfn.  Coefficient  Atom+Function         Bfn.  Coefficient  Atom+Function  
  ----- ------------  ---------------      ----- ------------  ---------------
     4      0.991121  1 C  px                 7     -0.985068  1 C  px         
     5      0.300740  1 C  py                 8     -0.298903  1 C  py         

 Vector   12  Occ=0.000000D+00  E= 6.710800D-01  Symmetry=e
              MO Center= -6.7D-18,  2.2D-17, -6.6D-01, r^2= 1.9D+00
   Bfn.  Coefficient  Atom+Function         Bfn.  Coefficient  Atom+Function  
  ----- ------------  ---------------      ----- ------------  ---------------
     5      0.991121  1 C  py                 8     -0.985068  1 C  py         
     4     -0.300740  1 C  px                 7      0.298903  1 C  px         

 Vector   13  Occ=0.000000D+00  E= 7.231945D-01  Symmetry=a1
              MO Center=  5.9D-17,  4.0D-18, -1.1D+00, r^2= 1.6D+00
   Bfn.  Coefficient  Atom+Function         Bfn.  Coefficient  Atom+Function  
  ----- ------------  ---------------      ----- ------------  ---------------
     3      1.620073  1 C  s                  2     -1.252522  1 C  s          
     6      0.621224  1 C  pz                 1     -0.497175  1 C  s          
    17     -0.361053  2 O  s                  9     -0.329290  1 C  pz         
    23      0.318649  2 O  pz         

 Vector   14  Occ=0.000000D+00  E= 9.732881D-01  Symmetry=a1
              MO Center= -1.0D-16,  1.3D-17, -8.4D-02, r^2= 1.1D+00
   Bfn.  Coefficient  Atom+Function         Bfn.  Coefficient  Atom+Function  
  ----- ------------  ---------------      ----- ------------  ---------------
     2      1.009917  1 C  s                  6      0.909429  1 C  pz         
    23      0.599522  2 O  pz                 9     -0.540540  1 C  pz         
     3     -0.487064  1 C  s                  1      0.406263  1 C  s          
    12     -0.316281  1 C  d  0              20      0.295516  2 O  pz         
    16     -0.224247  2 O  s          

 Vector   15  Occ=0.000000D+00  E= 1.061608D+00  Symmetry=a1
              MO Center=  7.9D-16, -3.9D-16,  6.7D-01, r^2= 1.6D+00
   Bfn.  Coefficient  Atom+Function         Bfn.  Coefficient  Atom+Function  
  ----- ------------  ---------------      ----- ------------  ---------------
    23      1.508169  2 O  pz                17     -0.933407  2 O  s          
    20     -0.677585  2 O  pz                 3      0.663858  1 C  s          
     2      0.560901  1 C  s                 12      0.458654  1 C  d  0       
     9      0.438951  1 C  pz                 1      0.304372  1 C  s          
     6      0.168730  1 C  pz         

 Vector   16  Occ=0.000000D+00  E= 1.229563D+00  Symmetry=e
              MO Center= -6.8D-16, -7.2D-17,  5.5D-01, r^2= 1.4D+00
   Bfn.  Coefficient  Atom+Function         Bfn.  Coefficient  Atom+Function  
  ----- ------------  ---------------      ----- ------------  ---------------
    21      1.344061  2 O  px                18     -0.913306  2 O  px         
     7     -0.545693  1 C  px                13      0.254210  1 C  d  1       

 Vector   17  Occ=0.000000D+00  E= 1.229563D+00  Symmetry=e
              MO Center= -4.0D-17,  3.8D-16,  5.5D-01, r^2= 1.4D+00
   Bfn.  Coefficient  Atom+Function         Bfn.  Coefficient  Atom+Function  
  ----- ------------  ---------------      ----- ------------  ---------------
    22      1.344061  2 O  py                19     -0.913306  2 O  py         
     8     -0.545693  1 C  py                11     -0.254210  1 C  d -1       


 center of mass
 --------------
 x =   0.00000000 y =   0.00000000 z =   0.02125794

 moments of inertia (a.u.)
 ------------------
          32.874830077533           0.000000000000           0.000000000000
           0.000000000000          32.874830077533           0.000000000000
           0.000000000000           0.000000000000           0.000000000000

  Mulliken analysis of the total density
  --------------------------------------

    Atom       Charge   Shell Charges
 -----------   ------   -------------------------------------------------------
    1 C    6     5.87   2.00  0.85  0.92  1.47  0.50  0.13
    2 O    8     8.13   2.00  0.87  0.87  2.75  1.61  0.02

       Multipole analysis of the density wrt the origin
       ------------------------------------------------

     L   x y z        total         open         nuclear
     -   - - -        -----         ----         -------
     0   0 0 0     -0.000000      0.000000     14.000000

     1   1 0 0     -0.000000      0.000000      0.000000
     1   0 1 0      0.000000      0.000000      0.000000
     1   0 0 1     -0.150975      0.000000      0.300000

     2   2 0 0     -7.511173      0.000000      0.000000
     2   1 1 0     -0.000000      0.000000      0.000000
     2   1 0 1      0.000000      0.000000      0.000000
     2   0 2 0     -7.511173      0.000000      0.000000
     2   0 1 1      0.000000      0.000000      0.000000
     2   0 0 2     -9.038652      0.000000     16.446085


 Parallel integral file used       4 records with       0 large values

 Line search: 
     step= 1.00 grad=-1.4D-01 hess= 1.0D-01 energy=   -112.744337 mode=downhill
 new step= 0.68                   predicted energy=   -112.754956
  no constraints, skipping    0.0000000000000000     
  no constraints, skipping    0.0000000000000000     
  no constraints, skipping    0.0000000000000000     

          --------
          Step   1
          --------


                         Geometry "geometry" -> "geometry"
                         ---------------------------------

 Output coordinates in angstroms (scale by  1.889725989 to convert to a.u.)

  No.       Tag          Charge          X              Y              Z
 ---- ---------------- ---------- -------------- -------------- --------------
    1 C                    6.0000     0.00000000     0.00000000    -0.62538094
    2 O                    8.0000     0.00000000     0.00000000     0.48252380

      Atomic Mass 
      ----------- 

      C                 12.000000
      O                 15.994910


 Effective nuclear repulsion energy (a.u.)      22.9266174076

            Nuclear Dipole moment (a.u.) 
            ----------------------------
        X                 Y               Z
 ---------------- ---------------- ----------------
     0.0000000000     0.0000000000     0.2039103794

      Symmetry information
      --------------------

 Group name             C4v       
 Group number             18
 Group order               8
 No. of unique centers     2

      Symmetry unique atoms

     1    2

                                 NWChem SCF Module
                                 -----------------


                                        CO



  ao basis        = "ao basis"
  functions       =    28
  atoms           =     2
  closed shells   =     7
  open shells     =     0
  charge          =   0.00
  wavefunction    = RHF 
  input vectors   = ./molecule.movecs
  output vectors  = ./molecule.movecs
  use symmetry    = T
  symmetry adapt  = T


 Summary of "ao basis" -> "ao basis" (spherical)
 ------------------------------------------------------------------------------
       Tag                 Description            Shells   Functions and Types
 ---------------- ------------------------------  ------  ---------------------
 C                          cc-pVDZ                  6       14   3s2p1d
 O                          cc-pVDZ                  6       14   3s2p1d


      Symmetry analysis of basis
      --------------------------

        a1         12
        a2          0
        b1          2
        b2          2
        e          12


 Forming initial guess at       0.4s


 Loading old vectors from job with title :

CO


      Symmetry analysis of molecular orbitals - initial
      -------------------------------------------------

  Numbering of irreducible representations: 

     1 a1          2 a2          3 b1          4 b2          5 e       

  Orbital symmetries:

     1 a1          2 a1          3 a1          4 a1          5 e       
     6 e           7 a1          8 e           9 e          10 a1      
    11 e          12 e          13 a1         14 a1         15 a1      
    16 e          17 e       


 Starting SCF solution at       0.4s



 ----------------------------------------------
         Quadratically convergent ROHF

 Convergence threshold     :          1.000E-04
 Maximum no. of iterations :           30
 Final Fock-matrix accuracy:          1.000E-07
 ----------------------------------------------


 #quartets = 3.081D+03 #integrals = 2.185D+04 #direct =  0.0% #cached =100.0%


 Integral file          = ./molecule.aoints.0
 Record size in doubles =  65536        No. of integs per rec  =  43688
 Max. records in memory =      3        Max. records in file   = 155303
 No. of bits per label  =      8        No. of bits per value  =     64


File balance: exchanges=     0  moved=     0  time=   0.0


              iter       energy          gnorm     gmax       time
             ----- ------------------- --------- --------- --------
                 1     -112.7480285166  1.82D-01  5.63D-02      0.4
                 2     -112.7501175568  1.64D-02  7.82D-03      0.4
                 3     -112.7501368218  2.97D-05  9.83D-06      0.5


       Final RHF  results 
       ------------------ 

         Total SCF energy =   -112.750136821813
      One-electron energy =   -198.951067709138
      Two-electron energy =     63.274313479721
 Nuclear repulsion energy =     22.926617407603

        Time for solution =      0.1s



       Symmetry analysis of molecular orbitals - final
       -----------------------------------------------

  Numbering of irreducible representations: 

     1 a1          2 a2          3 b1          4 b2          5 e       

  Orbital symmetries:

     1 a1          2 a1          3 a1          4 a1          5 e       
     6 e           7 a1          8 e           9 e          10 a1      
    11 e          12 e          13 a1         14 a1         15 a1      
    16 e          17 e       

             Final eigenvalues
             -----------------

              1      
    1  -20.6687
    2  -11.3583
    3   -1.5372
    4   -0.8040
    5   -0.6434
    6   -0.6434
    7   -0.5463
    8    0.1631
    9    0.1631
   10    0.3839
   11    0.6730
   12    0.6730
   13    0.7286
   14    1.0311
   15    1.0809
   16    1.2208
   17    1.2208

                       ROHF Final Molecular Orbital Analysis
                       -------------------------------------

 Vector    2  Occ=2.000000D+00  E=-1.135830D+01  Symmetry=a1
              MO Center=  2.6D-18, -4.0D-19, -6.2D-01, r^2= 2.7D-02
   Bfn.  Coefficient  Atom+Function         Bfn.  Coefficient  Atom+Function  
  ----- ------------  ---------------      ----- ------------  ---------------
     1      1.001395  1 C  s          

 Vector    3  Occ=2.000000D+00  E=-1.537173D+00  Symmetry=a1
              MO Center=  4.9D-18, -3.9D-17,  1.7D-01, r^2= 4.1D-01
   Bfn.  Coefficient  Atom+Function         Bfn.  Coefficient  Atom+Function  
  ----- ------------  ---------------      ----- ------------  ---------------
    16      0.418386  2 O  s                 17      0.337927  2 O  s          
     2      0.219698  1 C  s                  6      0.217788  1 C  pz         
    20     -0.166177  2 O  pz         

 Vector    4  Occ=2.000000D+00  E=-8.040149D-01  Symmetry=a1
              MO Center= -1.1D-17,  1.9D-18,  5.2D-01, r^2= 6.9D-01
   Bfn.  Coefficient  Atom+Function         Bfn.  Coefficient  Atom+Function  
  ----- ------------  ---------------      ----- ------------  ---------------
    20      0.505145  2 O  pz                17      0.390171  2 O  s          
     2     -0.288783  1 C  s                 23      0.263146  2 O  pz         
    16      0.239450  2 O  s          

 Vector    5  Occ=2.000000D+00  E=-6.433702D-01  Symmetry=e
              MO Center= -4.5D-18,  4.0D-17,  2.1D-01, r^2= 7.7D-01
   Bfn.  Coefficient  Atom+Function         Bfn.  Coefficient  Atom+Function  
  ----- ------------  ---------------      ----- ------------  ---------------
    19      0.544333  2 O  py                22      0.347332  2 O  py         
     5      0.297467  1 C  py         

 Vector    6  Occ=2.000000D+00  E=-6.433702D-01  Symmetry=e
              MO Center=  1.9D-18,  2.2D-19,  2.1D-01, r^2= 7.7D-01
   Bfn.  Coefficient  Atom+Function         Bfn.  Coefficient  Atom+Function  
  ----- ------------  ---------------      ----- ------------  ---------------
    18      0.544333  2 O  px                21      0.347332  2 O  px         
     4      0.297467  1 C  px         

 Vector    7  Occ=2.000000D+00  E=-5.462818D-01  Symmetry=a1
              MO Center=  2.4D-16, -1.3D-17, -9.1D-01, r^2= 9.1D-01
   Bfn.  Coefficient  Atom+Function         Bfn.  Coefficient  Atom+Function  
  ----- ------------  ---------------      ----- ------------  ---------------
     3      0.586959  1 C  s                  6     -0.451168  1 C  pz         
     2      0.295765  1 C  s                 20      0.242450  2 O  pz         
     9     -0.163499  1 C  pz         

 Vector    8  Occ=0.000000D+00  E= 1.631284D-01  Symmetry=e
              MO Center= -1.7D-17,  7.3D-17, -5.0D-01, r^2= 1.7D+00
   Bfn.  Coefficient  Atom+Function         Bfn.  Coefficient  Atom+Function  
  ----- ------------  ---------------      ----- ------------  ---------------
     8      0.772944  1 C  py                22     -0.503012  2 O  py         
     5      0.425218  1 C  py                19     -0.341085  2 O  py         
     7     -0.165745  1 C  px         

 Vector    9  Occ=0.000000D+00  E= 1.631284D-01  Symmetry=e
              MO Center= -2.2D-16, -4.8D-17, -5.0D-01, r^2= 1.7D+00
   Bfn.  Coefficient  Atom+Function         Bfn.  Coefficient  Atom+Function  
  ----- ------------  ---------------      ----- ------------  ---------------
     7      0.772944  1 C  px                21     -0.503012  2 O  px         
     4      0.425218  1 C  px                18     -0.341085  2 O  px         
     8      0.165745  1 C  py         

 Vector   10  Occ=0.000000D+00  E= 3.839337D-01  Symmetry=a1
              MO Center=  1.9D-19, -1.8D-19, -4.8D-01, r^2= 3.1D+00
   Bfn.  Coefficient  Atom+Function         Bfn.  Coefficient  Atom+Function  
  ----- ------------  ---------------      ----- ------------  ---------------
    17      1.898429  2 O  s                  9     -1.743948  1 C  pz         
     3     -1.660080  1 C  s                 23     -0.561654  2 O  pz         

 Vector   11  Occ=0.000000D+00  E= 6.729827D-01  Symmetry=e
              MO Center= -2.1D-18,  1.6D-17, -6.1D-01, r^2= 1.8D+00
   Bfn.  Coefficient  Atom+Function         Bfn.  Coefficient  Atom+Function  
  ----- ------------  ---------------      ----- ------------  ---------------
     5      1.028170  1 C  py                 8     -0.997136  1 C  py         

 Vector   12  Occ=0.000000D+00  E= 6.729827D-01  Symmetry=e
              MO Center= -4.5D-17, -5.9D-18, -6.1D-01, r^2= 1.8D+00
   Bfn.  Coefficient  Atom+Function         Bfn.  Coefficient  Atom+Function  
  ----- ------------  ---------------      ----- ------------  ---------------
     4      1.028170  1 C  px                 7     -0.997136  1 C  px         

 Vector   13  Occ=0.000000D+00  E= 7.285574D-01  Symmetry=a1
              MO Center=  5.3D-17,  3.9D-17, -1.1D+00, r^2= 1.6D+00
   Bfn.  Coefficient  Atom+Function         Bfn.  Coefficient  Atom+Function  
  ----- ------------  ---------------      ----- ------------  ---------------
     3      1.631468  1 C  s                  2     -1.199565  1 C  s          
     6      0.645184  1 C  pz                 1     -0.468050  1 C  s          
    17     -0.422330  2 O  s                 23      0.370861  2 O  pz         
     9     -0.336616  1 C  pz         

 Vector   14  Occ=0.000000D+00  E= 1.031086D+00  Symmetry=a1
              MO Center=  5.7D-16, -2.5D-16,  7.7D-01, r^2= 1.3D+00
   Bfn.  Coefficient  Atom+Function         Bfn.  Coefficient  Atom+Function  
  ----- ------------  ---------------      ----- ------------  ---------------
    23      1.574456  2 O  pz                 2      1.199665  1 C  s          
     6      0.695224  1 C  pz                17     -0.698324  2 O  s          
     1      0.556788  1 C  s                 20     -0.305792  2 O  pz         
    16     -0.214365  2 O  s                  3      0.165677  1 C  s          

 Vector   15  Occ=0.000000D+00  E= 1.080936D+00  Symmetry=a1
              MO Center=  1.4D-16, -1.1D-16, -2.3D-01, r^2= 1.2D+00
   Bfn.  Coefficient  Atom+Function         Bfn.  Coefficient  Atom+Function  
  ----- ------------  ---------------      ----- ------------  ---------------
     3      0.771453  1 C  s                 17     -0.736425  2 O  s          
     9      0.667140  1 C  pz                20     -0.639713  2 O  pz         
    12      0.597365  1 C  d  0               6     -0.549008  1 C  pz         
    23      0.514970  2 O  pz                 2     -0.340416  1 C  s          

 Vector   16  Occ=0.000000D+00  E= 1.220828D+00  Symmetry=e
              MO Center= -1.2D-16,  4.8D-16,  5.0D-01, r^2= 1.5D+00
   Bfn.  Coefficient  Atom+Function         Bfn.  Coefficient  Atom+Function  
  ----- ------------  ---------------      ----- ------------  ---------------
    22      1.357941  2 O  py                19     -0.867106  2 O  py         
     8     -0.591264  1 C  py                21     -0.329195  2 O  px         
    11     -0.304265  1 C  d -1              18      0.210206  2 O  px         

 Vector   17  Occ=0.000000D+00  E= 1.220828D+00  Symmetry=e
              MO Center= -6.3D-16, -1.5D-16,  5.0D-01, r^2= 1.5D+00
   Bfn.  Coefficient  Atom+Function         Bfn.  Coefficient  Atom+Function  
  ----- ------------  ---------------      ----- ------------  ---------------
    21      1.357941  2 O  px                18     -0.867106  2 O  px         
     7     -0.591264  1 C  px                22      0.329195  2 O  py         
    13      0.304265  1 C  d  1              19     -0.210206  2 O  py         


 center of mass
 --------------
 x =   0.00000000 y =   0.00000000 z =   0.01440189

 moments of inertia (a.u.)
 ------------------
          30.052906388558           0.000000000000           0.000000000000
           0.000000000000          30.052906388558           0.000000000000
           0.000000000000           0.000000000000           0.000000000000

  Mulliken analysis of the total density
  --------------------------------------

    Atom       Charge   Shell Charges
 -----------   ------   -------------------------------------------------------
    1 C    6     5.92   2.00  0.83  0.94  1.54  0.48  0.13
    2 O    8     8.08   2.00  0.87  0.85  2.79  1.54  0.03

       Multipole analysis of the density wrt the origin
       ------------------------------------------------

     L   x y z        total         open         nuclear
     -   - - -        -----         ----         -------
     0   0 0 0     -0.000000      0.000000     14.000000

     1   1 0 0     -0.000000      0.000000      0.000000
     1   0 1 0      0.000000      0.000000      0.000000
     1   0 0 1     -0.053096      0.000000      0.203910

     2   2 0 0     -7.419840      0.000000      0.000000
     2   1 1 0     -0.000000      0.000000      0.000000
     2   1 0 1      0.000000      0.000000      0.000000
     2   0 2 0     -7.419840      0.000000      0.000000
     2   0 1 1      0.000000      0.000000      0.000000
     2   0 0 2     -9.007276      0.000000     15.031473


 Parallel integral file used       4 records with       0 large values

                              NWChem Gradients Module
                              -----------------------


                                        CO


  wavefunction    =   RHF     

  Using symmetry


                         RHF ENERGY GRADIENTS

    atom               coordinates                        gradient
                 x          y          z           x          y          z
   1 C       0.000000   0.000000  -1.181799    0.000000   0.000000   0.006539
   2 O       0.000000   0.000000   0.911838    0.000000   0.000000  -0.006539

                 ----------------------------------------
                 |  Time  |  1-e(secs)   |  2-e(secs)   |
                 ----------------------------------------
                 |  CPU   |       0.00   |       0.12   |
                 ----------------------------------------
                 |  WALL  |       0.00   |       0.12   |
                 ----------------------------------------
  no constraints, skipping    0.0000000000000000     

  Step       Energy      Delta E   Gmax     Grms     Xrms     Xmax   Walltime
  ---- ---------------- -------- -------- -------- -------- -------- --------
@    1    -112.75013682 -4.3D-02  0.00654  0.00654  0.05886  0.10196      0.6
                                                                    



                                Z-matrix (autoz)
                                -------- 

 Units are Angstrom for bonds and degrees for angles

      Type          Name      I     J     K     L     M      Value     Gradient
      ----------- --------  ----- ----- ----- ----- ----- ---------- ----------
    1 Stretch                  1     2                       1.10790   -0.00654

  no constraints, skipping    0.0000000000000000     
  no constraints, skipping    0.0000000000000000     
  no constraints, skipping    0.0000000000000000     
                                 NWChem SCF Module
                                 -----------------


                                        CO



  ao basis        = "ao basis"
  functions       =    28
  atoms           =     2
  closed shells   =     7
  open shells     =     0
  charge          =   0.00
  wavefunction    = RHF 
  input vectors   = ./molecule.movecs
  output vectors  = ./molecule.movecs
  use symmetry    = T
  symmetry adapt  = T


 Summary of "ao basis" -> "ao basis" (spherical)
 ------------------------------------------------------------------------------
       Tag                 Description            Shells   Functions and Types
 ---------------- ------------------------------  ------  ---------------------
 C                          cc-pVDZ                  6       14   3s2p1d
 O                          cc-pVDZ                  6       14   3s2p1d


      Symmetry analysis of basis
      --------------------------

        a1         12
        a2          0
        b1          2
        b2          2
        e          12


 Forming initial guess at       0.6s


 Loading old vectors from job with title :

CO


      Symmetry analysis of molecular orbitals - initial
      -------------------------------------------------

  Numbering of irreducible representations: 

     1 a1          2 a2          3 b1          4 b2          5 e       

  Orbital symmetries:

     1 a1          2 a1          3 a1          4 a1          5 e       
     6 e           7 a1          8 e           9 e          10 a1      
    11 e          12 e          13 a1         14 a1         15 a1      
    16 e          17 e       


 Starting SCF solution at       0.6s



 ----------------------------------------------
         Quadratically convergent ROHF

 Convergence threshold     :          1.000E-04
 Maximum no. of iterations :           30
 Final Fock-matrix accuracy:          1.000E-07
 ----------------------------------------------

  avail0,avail1,avail0-avail1                326942               326942                    0
  avail0,avail1,avail0-avail1                326942               326942                    0
  avail0,avail1,avail0-avail1                326942               326957                  -15
  avail0,avail1,avail0-avail1                326942               326957                  -15

 #quartets = 3.081D+03 #integrals = 2.185D+04 #direct =  0.0% #cached =100.0%


 Integral file          = ./molecule.aoints.0
 Record size in doubles =  65536        No. of integs per rec  =  43688
 Max. records in memory =      3        Max. records in file   =   9704
 No. of bits per label  =      8        No. of bits per value  =     64


File balance: exchanges=     0  moved=     0  time=   0.0


              iter       energy          gnorm     gmax       time
             ----- ------------------- --------- --------- --------
                 1     -112.7501472117  5.64D-03  1.88D-03      0.6
                 2     -112.7501492240  1.52D-05  4.92D-06      0.6


       Final RHF  results 
       ------------------ 

         Total SCF energy =   -112.750149224021
      One-electron energy =   -198.891450019276
      Two-electron energy =     63.246208409868
 Nuclear repulsion energy =     22.895092385387

        Time for solution =      0.0s



       Symmetry analysis of molecular orbitals - final
       -----------------------------------------------

  Numbering of irreducible representations: 

     1 a1          2 a2          3 b1          4 b2          5 e       

  Orbital symmetries:

     1 a1          2 a1          3 a1          4 a1          5 e       
     6 e           7 a1          8 e           9 e          10 a1      
    11 e          12 e          13 a1         14 a1         15 a1      
    16 e          17 e       

             Final eigenvalues
             -----------------

              1      
    1  -20.6688
    2  -11.3589
    3   -1.5361
    4   -0.8039
    5   -0.6427
    6   -0.6427
    7   -0.5465
    8    0.1625
    9    0.1625
   10    0.3838
   11    0.6729
   12    0.6729
   13    0.7284
   14    1.0308
   15    1.0788
   16    1.2211
   17    1.2211

                       ROHF Final Molecular Orbital Analysis
                       -------------------------------------

 Vector    2  Occ=2.000000D+00  E=-1.135893D+01  Symmetry=a1
              MO Center=  2.7D-18, -4.0D-19, -6.3D-01, r^2= 2.7D-02
   Bfn.  Coefficient  Atom+Function         Bfn.  Coefficient  Atom+Function  
  ----- ------------  ---------------      ----- ------------  ---------------
     1      1.001389  1 C  s          

 Vector    3  Occ=2.000000D+00  E=-1.536098D+00  Symmetry=a1
              MO Center=  4.9D-18, -3.9D-17,  1.7D-01, r^2= 4.2D-01
   Bfn.  Coefficient  Atom+Function         Bfn.  Coefficient  Atom+Function  
  ----- ------------  ---------------      ----- ------------  ---------------
    16      0.418491  2 O  s                 17      0.338653  2 O  s          
     2      0.219478  1 C  s                  6      0.217396  1 C  pz         
    20     -0.165732  2 O  pz         

 Vector    4  Occ=2.000000D+00  E=-8.038722D-01  Symmetry=a1
              MO Center= -1.0D-17,  1.9D-18,  5.2D-01, r^2= 6.9D-01
   Bfn.  Coefficient  Atom+Function         Bfn.  Coefficient  Atom+Function  
  ----- ------------  ---------------      ----- ------------  ---------------
    20      0.504510  2 O  pz                17      0.389863  2 O  s          
     2     -0.289534  1 C  s                 23      0.263039  2 O  pz         
    16      0.239452  2 O  s          

 Vector    5  Occ=2.000000D+00  E=-6.426876D-01  Symmetry=e
              MO Center=  1.9D-18,  2.2D-19,  2.1D-01, r^2= 7.7D-01
   Bfn.  Coefficient  Atom+Function         Bfn.  Coefficient  Atom+Function  
  ----- ------------  ---------------      ----- ------------  ---------------
    18      0.544337  2 O  px                21      0.347711  2 O  px         
     4      0.297164  1 C  px         

 Vector    6  Occ=2.000000D+00  E=-6.426876D-01  Symmetry=e
              MO Center= -4.5D-18,  4.0D-17,  2.1D-01, r^2= 7.7D-01
   Bfn.  Coefficient  Atom+Function         Bfn.  Coefficient  Atom+Function  
  ----- ------------  ---------------      ----- ------------  ---------------
    19      0.544337  2 O  py                22      0.347711  2 O  py         
     5      0.297164  1 C  py         

 Vector    7  Occ=2.000000D+00  E=-5.464801D-01  Symmetry=a1
              MO Center=  2.4D-16, -1.2D-17, -9.1D-01, r^2= 9.1D-01
   Bfn.  Coefficient  Atom+Function         Bfn.  Coefficient  Atom+Function  
  ----- ------------  ---------------      ----- ------------  ---------------
     3      0.586454  1 C  s                  6     -0.451273  1 C  pz         
     2      0.295606  1 C  s                 20      0.243259  2 O  pz         
     9     -0.163450  1 C  pz         

 Vector    8  Occ=0.000000D+00  E= 1.624848D-01  Symmetry=e
              MO Center= -2.2D-16, -4.8D-17, -5.0D-01, r^2= 1.7D+00
   Bfn.  Coefficient  Atom+Function         Bfn.  Coefficient  Atom+Function  
  ----- ------------  ---------------      ----- ------------  ---------------
     7      0.771288  1 C  px                21     -0.501865  2 O  px         
     4      0.425556  1 C  px                18     -0.340860  2 O  px         
     8      0.167193  1 C  py         

 Vector    9  Occ=0.000000D+00  E= 1.624848D-01  Symmetry=e
              MO Center= -1.7D-17,  7.4D-17, -5.0D-01, r^2= 1.7D+00
   Bfn.  Coefficient  Atom+Function         Bfn.  Coefficient  Atom+Function  
  ----- ------------  ---------------      ----- ------------  ---------------
     8      0.771288  1 C  py                22     -0.501865  2 O  py         
     5      0.425556  1 C  py                19     -0.340860  2 O  py         
     7     -0.167193  1 C  px         

 Vector   10  Occ=0.000000D+00  E= 3.838358D-01  Symmetry=a1
              MO Center=  1.5D-18, -7.8D-19, -4.8D-01, r^2= 3.1D+00
   Bfn.  Coefficient  Atom+Function         Bfn.  Coefficient  Atom+Function  
  ----- ------------  ---------------      ----- ------------  ---------------
    17      1.895932  2 O  s                  9     -1.743367  1 C  pz         
     3     -1.658065  1 C  s                 23     -0.563097  2 O  pz         

 Vector   11  Occ=0.000000D+00  E= 6.729246D-01  Symmetry=e
              MO Center= -2.3D-18,  1.6D-17, -6.1D-01, r^2= 1.8D+00
   Bfn.  Coefficient  Atom+Function         Bfn.  Coefficient  Atom+Function  
  ----- ------------  ---------------      ----- ------------  ---------------
     5      1.026742  1 C  py                 8     -0.996608  1 C  py         

 Vector   12  Occ=0.000000D+00  E= 6.729246D-01  Symmetry=e
              MO Center= -4.5D-17, -6.4D-18, -6.1D-01, r^2= 1.8D+00
   Bfn.  Coefficient  Atom+Function         Bfn.  Coefficient  Atom+Function  
  ----- ------------  ---------------      ----- ------------  ---------------
     4      1.026742  1 C  px                 7     -0.996608  1 C  px         

 Vector   13  Occ=0.000000D+00  E= 7.284091D-01  Symmetry=a1
              MO Center=  7.4D-19,  2.7D-18, -1.1D+00, r^2= 1.6D+00
   Bfn.  Coefficient  Atom+Function         Bfn.  Coefficient  Atom+Function  
  ----- ------------  ---------------      ----- ------------  ---------------
     3      1.631071  1 C  s                  2     -1.201415  1 C  s          
     6      0.644416  1 C  pz                 1     -0.469059  1 C  s          
    17     -0.420245  2 O  s                 23      0.369039  2 O  pz         
     9     -0.336409  1 C  pz         

 Vector   14  Occ=0.000000D+00  E= 1.030753D+00  Symmetry=a1
              MO Center=  5.5D-16, -2.4D-16,  7.5D-01, r^2= 1.3D+00
   Bfn.  Coefficient  Atom+Function         Bfn.  Coefficient  Atom+Function  
  ----- ------------  ---------------      ----- ------------  ---------------
    23      1.558059  2 O  pz                 2      1.205342  1 C  s          
     6      0.711662  1 C  pz                17     -0.675308  2 O  s          
     1      0.557042  1 C  s                 20     -0.287802  2 O  pz         
    16     -0.217672  2 O  s          

 Vector   15  Occ=0.000000D+00  E= 1.078826D+00  Symmetry=a1
              MO Center=  1.6D-16, -1.2D-16, -2.1D-01, r^2= 1.2D+00
   Bfn.  Coefficient  Atom+Function         Bfn.  Coefficient  Atom+Function  
  ----- ------------  ---------------      ----- ------------  ---------------
     3      0.776531  1 C  s                 17     -0.754621  2 O  s          
     9      0.666943  1 C  pz                20     -0.649105  2 O  pz         
    12      0.597237  1 C  d  0              23      0.559889  2 O  pz         
     6     -0.529997  1 C  pz                 2     -0.308164  1 C  s          

 Vector   16  Occ=0.000000D+00  E= 1.221100D+00  Symmetry=e
              MO Center= -6.1D-16, -1.3D-16,  5.0D-01, r^2= 1.5D+00
   Bfn.  Coefficient  Atom+Function         Bfn.  Coefficient  Atom+Function  
  ----- ------------  ---------------      ----- ------------  ---------------
    21      1.367217  2 O  px                18     -0.874655  2 O  px         
     7     -0.594098  1 C  px                13      0.305103  1 C  d  1       
    22      0.281614  2 O  py                19     -0.180158  2 O  py         

 Vector   17  Occ=0.000000D+00  E= 1.221100D+00  Symmetry=e
              MO Center= -9.7D-17,  4.7D-16,  5.0D-01, r^2= 1.5D+00
   Bfn.  Coefficient  Atom+Function         Bfn.  Coefficient  Atom+Function  
  ----- ------------  ---------------      ----- ------------  ---------------
    22      1.367217  2 O  py                19     -0.874655  2 O  py         
     8     -0.594098  1 C  py                11     -0.305103  1 C  d -1       
    21     -0.281614  2 O  px                18      0.180158  2 O  px         


 center of mass
 --------------
 x =   0.00000000 y =   0.00000000 z =   0.01460758

 moments of inertia (a.u.)
 ------------------
          30.135725081035           0.000000000000           0.000000000000
           0.000000000000          30.135725081035           0.000000000000
           0.000000000000           0.000000000000           0.000000000000

  Mulliken analysis of the total density
  --------------------------------------

    Atom       Charge   Shell Charges
 -----------   ------   -------------------------------------------------------
    1 C    6     5.92   2.00  0.83  0.94  1.53  0.48  0.13
    2 O    8     8.08   2.00  0.87  0.85  2.79  1.55  0.03

       Multipole analysis of the density wrt the origin
       ------------------------------------------------

     L   x y z        total         open         nuclear
     -   - - -        -----         ----         -------
     0   0 0 0     -0.000000      0.000000     14.000000

     1   1 0 0     -0.000000      0.000000      0.000000
     1   0 1 0      0.000000      0.000000      0.000000
     1   0 0 1     -0.056007      0.000000      0.206793

     2   2 0 0     -7.422707      0.000000      0.000000
     2   1 1 0     -0.000000      0.000000      0.000000
     2   1 0 1      0.000000      0.000000      0.000000
     2   0 2 0     -7.422707      0.000000      0.000000
     2   0 1 1      0.000000      0.000000      0.000000
     2   0 0 2     -9.008349      0.000000     15.072972


 Parallel integral file used       4 records with       0 large values

 Line search: 
     step= 1.00 grad=-1.9D-05 hess= 6.4D-06 energy=   -112.750149 mode=downhill
 new step= 1.46                   predicted energy=   -112.750151
  no constraints, skipping    0.0000000000000000     
  no constraints, skipping    0.0000000000000000     
  no constraints, skipping    0.0000000000000000     

          --------
          Step   2
          --------


                         Geometry "geometry" -> "geometry"
                         ---------------------------------

 Output coordinates in angstroms (scale by  1.889725989 to convert to a.u.)

  No.       Tag          Charge          X              Y              Z
 ---- ---------------- ---------- -------------- -------------- --------------
    1 C                    6.0000     0.00000000     0.00000000    -0.62649585
    2 O                    8.0000     0.00000000     0.00000000     0.48363870

      Atomic Mass 
      ----------- 

      C                 12.000000
      O                 15.994910


 Effective nuclear repulsion energy (a.u.)      22.8805670347

            Nuclear Dipole moment (a.u.) 
            ----------------------------
        X                 Y               Z
 ---------------- ---------------- ----------------
     0.0000000000     0.0000000000     0.2081241183

      Symmetry information
      --------------------

 Group name             C4v       
 Group number             18
 Group order               8
 No. of unique centers     2

      Symmetry unique atoms

     1    2

                                 NWChem SCF Module
                                 -----------------


                                        CO



  ao basis        = "ao basis"
  functions       =    28
  atoms           =     2
  closed shells   =     7
  open shells     =     0
  charge          =   0.00
  wavefunction    = RHF 
  input vectors   = ./molecule.movecs
  output vectors  = ./molecule.movecs
  use symmetry    = T
  symmetry adapt  = T


 Summary of "ao basis" -> "ao basis" (spherical)
 ------------------------------------------------------------------------------
       Tag                 Description            Shells   Functions and Types
 ---------------- ------------------------------  ------  ---------------------
 C                          cc-pVDZ                  6       14   3s2p1d
 O                          cc-pVDZ                  6       14   3s2p1d


      Symmetry analysis of basis
      --------------------------

        a1         12
        a2          0
        b1          2
        b2          2
        e          12


 Forming initial guess at       0.7s


 Loading old vectors from job with title :

CO


      Symmetry analysis of molecular orbitals - initial
      -------------------------------------------------

  Numbering of irreducible representations: 

     1 a1          2 a2          3 b1          4 b2          5 e       

  Orbital symmetries:

     1 a1          2 a1          3 a1          4 a1          5 e       
     6 e           7 a1          8 e           9 e          10 a1      
    11 e          12 e          13 a1         14 a1         15 a1      
    16 e          17 e       


 Starting SCF solution at       0.7s



 ----------------------------------------------
         Quadratically convergent ROHF

 Convergence threshold     :          1.000E-04
 Maximum no. of iterations :           30
 Final Fock-matrix accuracy:          1.000E-07
 ----------------------------------------------


 #quartets = 3.081D+03 #integrals = 2.185D+04 #direct =  0.0% #cached =100.0%


 Integral file          = ./molecule.aoints.0
 Record size in doubles =  65536        No. of integs per rec  =  43688
 Max. records in memory =      3        Max. records in file   = 155303
 No. of bits per label  =      8        No. of bits per value  =     64


File balance: exchanges=     0  moved=     0  time=   0.0


              iter       energy          gnorm     gmax       time
             ----- ------------------- --------- --------- --------
                 1     -112.7501501923  2.60D-03  8.67D-04      0.7
                 2     -112.7501506194  7.21D-06  2.34D-06      0.7


       Final RHF  results 
       ------------------ 

         Total SCF energy =   -112.750150619418
      One-electron energy =   -198.863980130433
      Two-electron energy =     63.233262476269
 Nuclear repulsion energy =     22.880567034746

        Time for solution =      0.0s



       Symmetry analysis of molecular orbitals - final
       -----------------------------------------------

  Numbering of irreducible representations: 

     1 a1          2 a2          3 b1          4 b2          5 e       

  Orbital symmetries:

     1 a1          2 a1          3 a1          4 a1          5 e       
     6 e           7 a1          8 e           9 e          10 a1      
    11 e          12 e          13 a1         14 a1         15 a1      
    16 e          17 e       

             Final eigenvalues
             -----------------

              1      
    1  -20.6688
    2  -11.3592
    3   -1.5356
    4   -0.8038
    5   -0.6424
    6   -0.6424
    7   -0.5466
    8    0.1622
    9    0.1622
   10    0.3838
   11    0.6729
   12    0.6729
   13    0.7283
   14    1.0306
   15    1.0779
   16    1.2212
   17    1.2212

                       ROHF Final Molecular Orbital Analysis
                       -------------------------------------

 Vector    2  Occ=2.000000D+00  E=-1.135922D+01  Symmetry=a1
              MO Center=  2.7D-18, -4.0D-19, -6.3D-01, r^2= 2.7D-02
   Bfn.  Coefficient  Atom+Function         Bfn.  Coefficient  Atom+Function  
  ----- ------------  ---------------      ----- ------------  ---------------
     1      1.001386  1 C  s          

 Vector    3  Occ=2.000000D+00  E=-1.535601D+00  Symmetry=a1
              MO Center=  5.0D-18, -3.9D-17,  1.7D-01, r^2= 4.2D-01
   Bfn.  Coefficient  Atom+Function         Bfn.  Coefficient  Atom+Function  
  ----- ------------  ---------------      ----- ------------  ---------------
    16      0.418538  2 O  s                 17      0.338988  2 O  s          
     2      0.219377  1 C  s                  6      0.217215  1 C  pz         
    20     -0.165525  2 O  pz         

 Vector    4  Occ=2.000000D+00  E=-8.038052D-01  Symmetry=a1
              MO Center= -1.0D-17,  1.9D-18,  5.2D-01, r^2= 7.0D-01
   Bfn.  Coefficient  Atom+Function         Bfn.  Coefficient  Atom+Function  
  ----- ------------  ---------------      ----- ------------  ---------------
    20      0.504214  2 O  pz                17      0.389720  2 O  s          
     2     -0.289883  1 C  s                 23      0.262989  2 O  pz         
    16      0.239452  2 O  s          

 Vector    5  Occ=2.000000D+00  E=-6.423730D-01  Symmetry=e
              MO Center=  1.9D-18,  2.1D-19,  2.1D-01, r^2= 7.7D-01
   Bfn.  Coefficient  Atom+Function         Bfn.  Coefficient  Atom+Function  
  ----- ------------  ---------------      ----- ------------  ---------------
    18      0.544341  2 O  px                21      0.347886  2 O  px         
     4      0.297023  1 C  px         

 Vector    6  Occ=2.000000D+00  E=-6.423730D-01  Symmetry=e
              MO Center= -4.5D-18,  4.0D-17,  2.1D-01, r^2= 7.7D-01
   Bfn.  Coefficient  Atom+Function         Bfn.  Coefficient  Atom+Function  
  ----- ------------  ---------------      ----- ------------  ---------------
    19      0.544341  2 O  py                22      0.347886  2 O  py         
     5      0.297023  1 C  py         

 Vector    7  Occ=2.000000D+00  E=-5.465712D-01  Symmetry=a1
              MO Center=  5.9D-20,  1.6D-19, -9.1D-01, r^2= 9.1D-01
   Bfn.  Coefficient  Atom+Function         Bfn.  Coefficient  Atom+Function  
  ----- ------------  ---------------      ----- ------------  ---------------
     3      0.586220  1 C  s                  6     -0.451322  1 C  pz         
     2      0.295527  1 C  s                 20      0.243631  2 O  pz         
     9     -0.163430  1 C  pz         

 Vector    8  Occ=0.000000D+00  E= 1.621879D-01  Symmetry=e
              MO Center= -9.5D-18, -2.1D-18, -5.0D-01, r^2= 1.7D+00
   Bfn.  Coefficient  Atom+Function         Bfn.  Coefficient  Atom+Function  
  ----- ------------  ---------------      ----- ------------  ---------------
     7      0.772374  1 C  px                21     -0.502538  2 O  px         
     4      0.426733  1 C  px                18     -0.341571  2 O  px         
     8      0.159132  1 C  py         

 Vector    9  Occ=0.000000D+00  E= 1.621879D-01  Symmetry=e
              MO Center= -1.5D-18,  2.6D-19, -5.0D-01, r^2= 1.7D+00
   Bfn.  Coefficient  Atom+Function         Bfn.  Coefficient  Atom+Function  
  ----- ------------  ---------------      ----- ------------  ---------------
[...]
    16      0.239450  2 O  s          

 Vector    5  Occ=2.000000D+00  E=-6.423671D-01  Symmetry=e
              MO Center=  1.9D-18,  2.1D-19,  2.1D-01, r^2= 7.7D-01
   Bfn.  Coefficient  Atom+Function         Bfn.  Coefficient  Atom+Function  
  ----- ------------  ---------------      ----- ------------  ---------------
    18      0.544342  2 O  px                21      0.347887  2 O  px         
     4      0.297024  1 C  px         

 Vector    6  Occ=2.000000D+00  E=-6.423671D-01  Symmetry=e
              MO Center= -4.5D-18,  4.0D-17,  2.1D-01, r^2= 7.7D-01
   Bfn.  Coefficient  Atom+Function         Bfn.  Coefficient  Atom+Function  
  ----- ------------  ---------------      ----- ------------  ---------------
    19      0.544342  2 O  py                22      0.347887  2 O  py         
     5      0.297024  1 C  py         

 Vector    7  Occ=2.000000D+00  E=-5.465708D-01  Symmetry=a1
              MO Center=  5.9D-20,  1.6D-19, -9.1D-01, r^2= 9.1D-01
   Bfn.  Coefficient  Atom+Function         Bfn.  Coefficient  Atom+Function  
  ----- ------------  ---------------      ----- ------------  ---------------
     3      0.586219  1 C  s                  6     -0.451324  1 C  pz         
     2      0.295524  1 C  s                 20      0.243636  2 O  pz         
     9     -0.163430  1 C  pz         

 Vector    8  Occ=0.000000D+00  E= 1.621853D-01  Symmetry=e
              MO Center= -9.5D-18, -2.1D-18, -5.0D-01, r^2= 1.7D+00
   Bfn.  Coefficient  Atom+Function         Bfn.  Coefficient  Atom+Function  
  ----- ------------  ---------------      ----- ------------  ---------------
     7      0.772367  1 C  px                21     -0.502533  2 O  px         
     4      0.426735  1 C  px                18     -0.341570  2 O  px         
     8      0.159134  1 C  py         

 Vector    9  Occ=0.000000D+00  E= 1.621853D-01  Symmetry=e
              MO Center= -1.5D-18,  2.6D-19, -5.0D-01, r^2= 1.7D+00
   Bfn.  Coefficient  Atom+Function         Bfn.  Coefficient  Atom+Function  
  ----- ------------  ---------------      ----- ------------  ---------------
     8      0.772367  1 C  py                22     -0.502533  2 O  py         
     5      0.426735  1 C  py                19     -0.341570  2 O  py         
     7     -0.159134  1 C  px         

 Vector   10  Occ=0.000000D+00  E= 3.837904D-01  Symmetry=a1
              MO Center=  2.1D-18, -1.1D-18, -4.8D-01, r^2= 3.1D+00
   Bfn.  Coefficient  Atom+Function         Bfn.  Coefficient  Atom+Function  
  ----- ------------  ---------------      ----- ------------  ---------------
    17      1.894765  2 O  s                  9     -1.743093  1 C  pz         
     3     -1.657123  1 C  s                 23     -0.563772  2 O  pz         

 Vector   11  Occ=0.000000D+00  E= 6.728983D-01  Symmetry=e
              MO Center=  1.5D-18,  1.6D-18, -6.1D-01, r^2= 1.8D+00
   Bfn.  Coefficient  Atom+Function         Bfn.  Coefficient  Atom+Function  
  ----- ------------  ---------------      ----- ------------  ---------------
     5      0.772227  1 C  py                 8     -0.749861  1 C  py         
     4      0.691933  1 C  px                 7     -0.671893  1 C  px         

 Vector   12  Occ=0.000000D+00  E= 6.728983D-01  Symmetry=e
              MO Center= -2.0D-18,  1.8D-18, -6.1D-01, r^2= 1.8D+00
   Bfn.  Coefficient  Atom+Function         Bfn.  Coefficient  Atom+Function  
  ----- ------------  ---------------      ----- ------------  ---------------
     4      0.772227  1 C  px                 7     -0.749861  1 C  px         
     5     -0.691933  1 C  py                 8      0.671893  1 C  py         

 Vector   13  Occ=0.000000D+00  E= 7.283405D-01  Symmetry=a1
              MO Center=  9.8D-19,  2.6D-18, -1.1D+00, r^2= 1.6D+00
   Bfn.  Coefficient  Atom+Function         Bfn.  Coefficient  Atom+Function  
  ----- ------------  ---------------      ----- ------------  ---------------
     3      1.630884  1 C  s                  2     -1.202274  1 C  s          
     6      0.644059  1 C  pz                 1     -0.469527  1 C  s          
    17     -0.419274  2 O  s                 23      0.368193  2 O  pz         
     9     -0.336312  1 C  pz         

 Vector   14  Occ=0.000000D+00  E= 1.030573D+00  Symmetry=a1
              MO Center=  5.3D-16, -2.4D-16,  7.4D-01, r^2= 1.3D+00
   Bfn.  Coefficient  Atom+Function         Bfn.  Coefficient  Atom+Function  
  ----- ------------  ---------------      ----- ------------  ---------------
    23      1.549550  2 O  pz                 2      1.207904  1 C  s          
     6      0.719520  1 C  pz                17     -0.663848  2 O  s          
     1      0.557066  1 C  s                 20     -0.278843  2 O  pz         
    16     -0.219221  2 O  s          

 Vector   15  Occ=0.000000D+00  E= 1.077870D+00  Symmetry=a1
              MO Center=  1.7D-16, -1.2D-16, -2.0D-01, r^2= 1.2D+00
   Bfn.  Coefficient  Atom+Function         Bfn.  Coefficient  Atom+Function  
  ----- ------------  ---------------      ----- ------------  ---------------
     3      0.778807  1 C  s                 17     -0.763352  2 O  s          
     9      0.666644  1 C  pz                20     -0.653513  2 O  pz         
    12      0.597095  1 C  d  0              23      0.581784  2 O  pz         
     6     -0.520440  1 C  pz                 2     -0.292233  1 C  s          

 Vector   16  Occ=0.000000D+00  E= 1.221228D+00  Symmetry=e
              MO Center= -8.2D-17,  4.6D-16,  5.1D-01, r^2= 1.5D+00
   Bfn.  Coefficient  Atom+Function         Bfn.  Coefficient  Atom+Function  
  ----- ------------  ---------------      ----- ------------  ---------------
    22      1.373585  2 O  py                19     -0.879492  2 O  py         
     8     -0.596298  1 C  py                11     -0.305939  1 C  d -1       
    21     -0.245125  2 O  px                18      0.156951  2 O  px         

 Vector   17  Occ=0.000000D+00  E= 1.221228D+00  Symmetry=e
              MO Center= -6.4D-16, -1.1D-16,  5.1D-01, r^2= 1.5D+00
   Bfn.  Coefficient  Atom+Function         Bfn.  Coefficient  Atom+Function  
  ----- ------------  ---------------      ----- ------------  ---------------
    21      1.373585  2 O  px                18     -0.879492  2 O  px         
     7     -0.596298  1 C  px                13      0.305939  1 C  d  1       
    22      0.245125  2 O  py                19     -0.156951  2 O  py         


 center of mass
 --------------
 x =   0.00000000 y =   0.00000000 z =   0.01470378

 moments of inertia (a.u.)
 ------------------
          30.174501042988           0.000000000000           0.000000000000
           0.000000000000          30.174501042988           0.000000000000
           0.000000000000           0.000000000000           0.000000000000

  Mulliken analysis of the total density
  --------------------------------------

    Atom       Charge   Shell Charges
 -----------   ------   -------------------------------------------------------
    1 C    6     5.92   2.00  0.83  0.94  1.53  0.48  0.13
    2 O    8     8.08   2.00  0.87  0.85  2.79  1.55  0.03

       Multipole analysis of the density wrt the origin
       ------------------------------------------------

     L   x y z        total         open         nuclear
     -   - - -        -----         ----         -------
     0   0 0 0     -0.000000      0.000000     14.000000

     1   1 0 0      0.000000      0.000000      0.000000
     1   0 1 0     -0.000000      0.000000      0.000000
     1   0 0 1     -0.057358      0.000000      0.208142

     2   2 0 0     -7.424020      0.000000      0.000000
     2   1 1 0     -0.000000      0.000000      0.000000
     2   1 0 1     -0.000000      0.000000      0.000000
     2   0 2 0     -7.424020      0.000000      0.000000
     2   0 1 1      0.000000      0.000000      0.000000
     2   0 0 2     -9.008869      0.000000     15.092403


 Parallel integral file used       4 records with       0 large values

 Line search: 
     step= 1.00 grad=-4.7D-10 hess= 3.3D-10 energy=   -112.750151 mode=accept  
 new step= 1.00                   predicted energy=   -112.750151
  no constraints, skipping    0.0000000000000000     
  no constraints, skipping    0.0000000000000000     
  no constraints, skipping    0.0000000000000000     

          --------
          Step   3
          --------


                         Geometry "geometry" -> "geometry"
                         ---------------------------------

 Output coordinates in angstroms (scale by  1.889725989 to convert to a.u.)

  No.       Tag          Charge          X              Y              Z
 ---- ---------------- ---------- -------------- -------------- --------------
    1 C                    6.0000     0.00000000     0.00000000    -0.62650046
    2 O                    8.0000     0.00000000     0.00000000     0.48364332

      Atomic Mass 
      ----------- 

      C                 12.000000
      O                 15.994910


 Effective nuclear repulsion energy (a.u.)      22.8803769038

            Nuclear Dipole moment (a.u.) 
            ----------------------------
        X                 Y               Z
 ---------------- ---------------- ----------------
     0.0000000000     0.0000000000     0.2081415510

      Symmetry information
      --------------------

 Group name             C4v       
 Group number             18
 Group order               8
 No. of unique centers     2

      Symmetry unique atoms

     1    2

                                 NWChem SCF Module
                                 -----------------


                                        CO



  ao basis        = "ao basis"
  functions       =    28
  atoms           =     2
  closed shells   =     7
  open shells     =     0
  charge          =   0.00
  wavefunction    = RHF 
  input vectors   = ./molecule.movecs
  output vectors  = ./molecule.movecs
  use symmetry    = T
  symmetry adapt  = T


 Summary of "ao basis" -> "ao basis" (spherical)
 ------------------------------------------------------------------------------
       Tag                 Description            Shells   Functions and Types
 ---------------- ------------------------------  ------  ---------------------
 C                          cc-pVDZ                  6       14   3s2p1d
 O                          cc-pVDZ                  6       14   3s2p1d


      Symmetry analysis of basis
      --------------------------

        a1         12
        a2          0
        b1          2
        b2          2
        e          12


  The SCF is already converged 

         Total SCF energy =   -112.750150619557

                              NWChem Gradients Module
                              -----------------------


                                        CO


  wavefunction    =   RHF     

  Using symmetry


                         RHF ENERGY GRADIENTS

    atom               coordinates                        gradient
                 x          y          z           x          y          z
   1 C       0.000000   0.000000  -1.183914    0.000000   0.000000  -0.000008
   2 O       0.000000   0.000000   0.913953    0.000000   0.000000   0.000008

                 ----------------------------------------
                 |  Time  |  1-e(secs)   |  2-e(secs)   |
                 ----------------------------------------
                 |  CPU   |       0.00   |       0.13   |
                 ----------------------------------------
                 |  WALL  |       0.00   |       0.13   |
                 ----------------------------------------
  no constraints, skipping    0.0000000000000000     

  Step       Energy      Delta E   Gmax     Grms     Xrms     Xmax   Walltime
  ---- ---------------- -------- -------- -------- -------- -------- --------
@    3    -112.75015062 -1.4D-10  0.00001  0.00001  0.00001  0.00001      1.1
                                     ok       ok       ok       ok  



                                Z-matrix (autoz)
                                -------- 

 Units are Angstrom for bonds and degrees for angles

      Type          Name      I     J     K     L     M      Value     Gradient
      ----------- --------  ----- ----- ----- ----- ----- ---------- ----------
    1 Stretch                  1     2                       1.11014    0.00001


      ----------------------
      Optimization converged
      ----------------------


  Step       Energy      Delta E   Gmax     Grms     Xrms     Xmax   Walltime
  ---- ---------------- -------- -------- -------- -------- -------- --------
@    3    -112.75015062 -1.4D-10  0.00001  0.00001  0.00001  0.00001      1.1
                                     ok       ok       ok       ok  



                                Z-matrix (autoz)
                                -------- 

 Units are Angstrom for bonds and degrees for angles

      Type          Name      I     J     K     L     M      Value     Gradient
      ----------- --------  ----- ----- ----- ----- ----- ---------- ----------
    1 Stretch                  1     2                       1.11014    0.00001



                         Geometry "geometry" -> "geometry"
                         ---------------------------------

 Output coordinates in angstroms (scale by  1.889725989 to convert to a.u.)

  No.       Tag          Charge          X              Y              Z
 ---- ---------------- ---------- -------------- -------------- --------------
    1 C                    6.0000     0.00000000     0.00000000    -0.62650046
    2 O                    8.0000     0.00000000     0.00000000     0.48364332

      Atomic Mass 
      ----------- 

      C                 12.000000
      O                 15.994910


 Effective nuclear repulsion energy (a.u.)      22.8803769038

            Nuclear Dipole moment (a.u.) 
            ----------------------------
        X                 Y               Z
 ---------------- ---------------- ----------------
     0.0000000000     0.0000000000     0.2081415510

      Symmetry information
      --------------------

 Group name             C4v       
 Group number             18
 Group order               8
 No. of unique centers     2

      Symmetry unique atoms

     1    2


                Final and change from initial internal coordinates
                --------------------------------------------------



                                Z-matrix (autoz)
                                -------- 

 Units are Angstrom for bonds and degrees for angles

      Type          Name      I     J     K     L     M      Value       Change
      ----------- --------  ----- ----- ----- ----- ----- ---------- ----------
    1 Stretch                  1     2                       1.11014    0.11014

 ==============================================================================
                                internuclear distances
 ------------------------------------------------------------------------------
       center one      |      center two      | atomic units |  angstroms
 ------------------------------------------------------------------------------
    2 O                |   1 C                |     2.09787  |     1.11014
 ------------------------------------------------------------------------------
                         number of included internuclear distances:          1
 ==============================================================================




 Task  times  cpu:        1.0s     wall:        1.0s


                                NWChem Input Module
                                -------------------


 Summary of allocated global arrays
-----------------------------------
  No active global arrays


MA_summarize_allocated_blocks: starting scan ...
MA_summarize_allocated_blocks: scan completed: 0 heap blocks, 0 stack blocks
MA usage statistics:

	allocation statistics:
					      heap	     stack
					      ----	     -----
	current number of blocks	         0	         0
	maximum number of blocks	        20	        29
	current total bytes		         0	         0
	maximum total bytes		   1586016	  22509608
	maximum total K-bytes		      1587	     22510
	maximum total M-bytes		         2	        23


                                     CITATION
                                     --------
                Please cite the following reference when publishing
                           results obtained with NWChem:

          E. Apra, E. J. Bylaska, W. A. de Jong, N. Govind, K. Kowalski,
       T. P. Straatsma, M. Valiev, H. J. J. van Dam, Y. Alexeev, J. Anchell,
       V. Anisimov, F. W. Aquino, R. Atta-Fynn, J. Autschbach, N. P. Bauman,
     J. C. Becca, D. E. Bernholdt, K. Bhaskaran-Nair, S. Bogatko, P. Borowski,
         J. Boschen, J. Brabec, A. Bruner, E. Cauet, Y. Chen, G. N. Chuev,
      C. J. Cramer, J. Daily, M. J. O. Deegan, T. H. Dunning Jr., M. Dupuis,
   K. G. Dyall, G. I. Fann, S. A. Fischer, A. Fonari, H. Fruchtl, L. Gagliardi,
      J. Garza, N. Gawande, S. Ghosh, K. Glaesemann, A. W. Gotz, J. Hammond,
       V. Helms, E. D. Hermes, K. Hirao, S. Hirata, M. Jacquelin, L. Jensen,
   B. G. Johnson, H. Jonsson, R. A. Kendall, M. Klemm, R. Kobayashi, V. Konkov,
      S. Krishnamoorthy, M. Krishnan, Z. Lin, R. D. Lins, R. J. Littlefield,
      A. J. Logsdail, K. Lopata, W. Ma, A. V. Marenich, J. Martin del Campo,
   D. Mejia-Rodriguez, J. E. Moore, J. M. Mullin, T. Nakajima, D. R. Nascimento,
    J. A. Nichols, P. J. Nichols, J. Nieplocha, A. Otero-de-la-Roza, B. Palmer,
    A. Panyala, T. Pirojsirikul, B. Peng, R. Peverati, J. Pittner, L. Pollack,
   R. M. Richard, P. Sadayappan, G. C. Schatz, W. A. Shelton, D. W. Silverstein,
   D. M. A. Smith, T. A. Soares, D. Song, M. Swart, H. L. Taylor, G. S. Thomas,
            V. Tipparaju, D. G. Truhlar, K. Tsemekhman, T. Van Voorhis,
      A. Vazquez-Mayagoitia, P. Verma, O. Villa, A. Vishnu, K. D. Vogiatzis,
        D. Wang, J. H. Weare, M. J. Williamson, T. L. Windus, K. Wolinski,
        A. T. Wong, Q. Wu, C. Yang, Q. Yu, M. Zacharias, Z. Zhang, Y. Zhao,
                                and R. J. Harrison
                        "NWChem: Past, present, and future
                         J. Chem. Phys. 152, 184102 (2020)
                               doi:10.1063/5.0004997

                                      AUTHORS
                                      -------
  E. Apra, E. J. Bylaska, N. Govind, K. Kowalski, M. Valiev, D. Mejia-Rodriguez,
       A. Kunitsa, N. P. Bauman, A. Panyala, W. A. de Jong, T. P. Straatsma,
   H. J. J. van Dam, D. Wang, T. L. Windus, J. Hammond, J. Autschbach, A. Woods,
    K. Bhaskaran-Nair, J. Brabec, K. Lopata, S. A. Fischer, S. Krishnamoorthy,
     M. Jacquelin, W. Ma, M. Klemm, O. Villa, Y. Chen, V. Anisimov, F. Aquino,
     S. Hirata, M. T. Hackler, E. Hermes, L. Jensen, J. E. Moore, J. C. Becca,
      V. Konjkov, T. Risthaus, M. Malagoli, A. Marenich, A. Otero-de-la-Roza,
        J. Mullin, P. Nichols, R. Peverati, J. Pittner, Y. Zhao, P.-D. Fan,
        A. Fonari, M. J. Williamson, R. J. Harrison, J. R. Rehr, M. Dupuis,
     D. Silverstein, D. M. A. Smith, J. Nieplocha, V. Tipparaju, M. Krishnan,
     B. E. Van Kuiken, A. Vazquez-Mayagoitia, M. Swart, Q. Wu, T. Van Voorhis,
     A. A. Auer, M. Nooijen, L. D. Crosby, E. Brown, G. Cisneros, G. I. Fann,
   H. Fruchtl, J. Garza, K. Hirao, R. A. Kendall, J. A. Nichols, K. Tsemekhman,
    K. Wolinski, J. Anchell, D. E. Bernholdt, P. Borowski, T. Clark, D. Clerc,
   H. Dachsel, M. J. O. Deegan, K. Dyall, D. Elwood, E. Glendening, M. Gutowski,
   A. C. Hess, J. Jaffe, B. G. Johnson, J. Ju, R. Kobayashi, R. Kutteh, Z. Lin,
   R. Littlefield, X. Long, B. Meng, T. Nakajima, S. Niu, L. Pollack, M. Rosing,
   K. Glaesemann, G. Sandrone, M. Stave, H. Taylor, G. Thomas, J. H. van Lenthe,
                               A. T. Wong, Z. Zhang.

 Total times  cpu:        1.1s     wall:        1.1s
