 argument  1 = aug-cc-PVTZ/RHF.nw



============================== echo of input deck ==============================
echo

start molecule

title "formaldehydeNotOptimized"
memory total 4 gb

charge 0
geometry units angstrom print xyz
 C  0.00000024     0.25211309     0.00000000
 O -0.00000001    -0.92995152     0.00000000
 H -0.00000012     0.83891922     0.93253272
 H -0.00000012     0.83891922    -0.93253272
end

basis spherical
* library aug-cc-PVTZ
end

task scf
================================================================================


                                         
                                         


             Northwest Computational Chemistry Package (NWChem) 7.2.2
             --------------------------------------------------------


                    Environmental Molecular Sciences Laboratory
                       Pacific Northwest National Laboratory
                                Richland, WA 99352

                              Copyright (c) 1994-2022
                       Pacific Northwest National Laboratory
                            Battelle Memorial Institute

             NWChem is an open-source computational chemistry package
                        distributed under the terms of the
                      Educational Community License (ECL) 2.0
             A copy of the license is included with this distribution
                              in the LICENSE.TXT file

                                  ACKNOWLEDGMENT
                                  --------------

            This software and its documentation were developed at the
            EMSL at Pacific Northwest National Laboratory, a multiprogram
            national laboratory, operated for the U.S. Department of Energy
            by Battelle under Contract Number DE-AC05-76RL01830. Support
            for this work was provided by the Department of Energy Office
            of Biological and Environmental Research, Office of Basic
            Energy Sciences, and the Office of Advanced Scientific Computing.


           Job information
           ---------------

    hostname        = dhcp-10-22-10-228.wlan.ntnu.no
    program         = nwchem
    date            = Fri Mar 29 15:40:49 2024

    compiled        = Sun_Dec_10_10:51:21_2023
    source          = /private/tmp/nwchem-20231210-5888-3uvdjr/nwchem-7.2.2
    nwchem branch   = 7.2.2
    nwchem revision = 74936fb9
    ga revision     = 5.8.0
    use scalapack   = T
    input           = aug-cc-PVTZ/RHF.nw
    prefix          = molecule.
    data base       = ./molecule.db
    status          = startup
    nproc           =        4
    time left       =     -1s



           Memory information
           ------------------

    heap     =  134217724 doubles =   1024.0 Mbytes
    stack    =  134217729 doubles =   1024.0 Mbytes
    global   =  268435456 doubles =   2048.0 Mbytes (distinct from heap & stack)
    total    =  536870909 doubles =   4096.0 Mbytes
    verify   = yes
    hardfail = no 


           Directory information
           ---------------------

  0 permanent = .
  0 scratch   = .




                                NWChem Input Module
                                -------------------


                             formaldehydeNotOptimized
                             ------------------------

 Scaling coordinates for geometry "geometry" by  1.889725989
 (inverse scale =  0.529177249)

 C2V symmetry detected

          ------
          auto-z
          ------
  Looking for out-of-plane bends
  no constraints, skipping    0.0000000000000000     
  no constraints, skipping    0.0000000000000000     


                             Geometry "geometry" -> ""
                             -------------------------

 Output coordinates in angstroms (scale by  1.889725989 to convert to a.u.)

  No.       Tag          Charge          X              Y              Z
 ---- ---------------- ---------- -------------- -------------- --------------
    1 C                    6.0000     0.00000000     0.00000000    -0.51768154
    2 O                    8.0000     0.00000000     0.00000000     0.66438307
    3 H                    1.0000     0.00000000     0.93253272    -1.10448767
    4 H                    1.0000     0.00000000    -0.93253272    -1.10448767

      Atomic Mass 
      ----------- 

      C                 12.000000
      O                 15.994910
      H                  1.007825


 Effective nuclear repulsion energy (a.u.)      31.7696113616

            Nuclear Dipole moment (a.u.) 
            ----------------------------
        X                 Y               Z
 ---------------- ---------------- ----------------
     0.0000000000     0.0000000000     0.0000000000

      Symmetry information
      --------------------

 Group name             C2v       
 Group number             16
 Group order               4
 No. of unique centers     3

      Symmetry unique atoms

     1    2    3



                                Z-matrix (autoz)
                                -------- 

 Units are Angstrom for bonds and degrees for angles

      Type          Name      I     J     K     L     M      Value
      ----------- --------  ----- ----- ----- ----- ----- ----------
    1 Stretch                  1     2                       1.18206
    2 Stretch                  1     3                       1.10180
    3 Stretch                  1     4                       1.10180
    4 Bend                     2     1     3               122.18059
    5 Bend                     2     1     4               122.18059
    6 Bend                     3     1     4               115.63882
    7 Torsion                  2     1     3     4         180.00000
    8 Torsion                  2     1     4     3         180.00000
    9 Torsion                  3     1     2     4         180.00000
   10 Torsion                  2     4     1     3         180.00000
   11 Torsion                  3     2     1     4         180.00000
   12 Torsion                  2     3     1     4         180.00000


            XYZ format geometry
            -------------------
     4
 geometry
 C                     0.00000000     0.00000000    -0.51768154
 O                     0.00000000     0.00000000     0.66438307
 H                     0.00000000     0.93253272    -1.10448767
 H                     0.00000000    -0.93253272    -1.10448767

 ==============================================================================
                                internuclear distances
 ------------------------------------------------------------------------------
       center one      |      center two      | atomic units |  angstroms
 ------------------------------------------------------------------------------
    2 O                |   1 C                |     2.23378  |     1.18206
    3 H                |   1 C                |     2.08210  |     1.10180
    4 H                |   1 C                |     2.08210  |     1.10180
 ------------------------------------------------------------------------------
                         number of included internuclear distances:          3
 ==============================================================================



 ==============================================================================
                                 internuclear angles
 ------------------------------------------------------------------------------
        center 1       |       center 2       |       center 3       |  degrees
 ------------------------------------------------------------------------------
    2 O                |   1 C                |   3 H                |   122.18
    2 O                |   1 C                |   4 H                |   122.18
    3 H                |   1 C                |   4 H                |   115.64
 ------------------------------------------------------------------------------
                            number of included internuclear angles:          3
 ==============================================================================



  library name resolved from: .nwchemrc
  library file name is: </opt/homebrew/Cellar/nwchem/7.2.2/share/nwchem/libraries/>
  


 Summary of "ao basis" -> "" (spherical)
 ------------------------------------------------------------------------------
       Tag                 Description            Shells   Functions and Types
 ---------------- ------------------------------  ------  ---------------------
 *                        aug-cc-PVTZ                 on all atoms 


                      Basis "ao basis" -> "ao basis" (spherical)
                      -----
  C (Carbon)
  ----------
            Exponent  Coefficients 
       -------------- ---------------------------------------------------------
  1 S  8.23600000E+03  0.000531
  1 S  1.23500000E+03  0.004108
  1 S  2.80800000E+02  0.021087
  1 S  7.92700000E+01  0.081853
  1 S  2.55900000E+01  0.234817
  1 S  8.99700000E+00  0.434401
  1 S  3.31900000E+00  0.346129
  1 S  3.64300000E-01 -0.008983

  2 S  8.23600000E+03 -0.000113
  2 S  1.23500000E+03 -0.000878
  2 S  2.80800000E+02 -0.004540
  2 S  7.92700000E+01 -0.018133
  2 S  2.55900000E+01 -0.055760
  2 S  8.99700000E+00 -0.126895
  2 S  3.31900000E+00 -0.170352
  2 S  3.64300000E-01  0.598684

  3 S  9.05900000E-01  1.000000

  4 S  1.28500000E-01  1.000000

  5 S  4.40200000E-02  1.000000

  6 P  1.87100000E+01  0.014031
  6 P  4.13300000E+00  0.086866
  6 P  1.20000000E+00  0.290216

  7 P  3.82700000E-01  1.000000

  8 P  1.20900000E-01  1.000000

  9 P  3.56900000E-02  1.000000

 10 D  1.09700000E+00  1.000000

 11 D  3.18000000E-01  1.000000

 12 D  1.00000000E-01  1.000000

 13 F  7.61000000E-01  1.000000

 14 F  2.68000000E-01  1.000000

  O (Oxygen)
  ----------
            Exponent  Coefficients 
       -------------- ---------------------------------------------------------
  1 S  1.53300000E+04  0.000508
  1 S  2.29900000E+03  0.003929
  1 S  5.22400000E+02  0.020243
  1 S  1.47300000E+02  0.079181
  1 S  4.75500000E+01  0.230687
  1 S  1.67600000E+01  0.433118
  1 S  6.20700000E+00  0.350260
  1 S  6.88200000E-01 -0.008154

  2 S  1.53300000E+04 -0.000115
  2 S  2.29900000E+03 -0.000895
  2 S  5.22400000E+02 -0.004636
  2 S  1.47300000E+02 -0.018724
  2 S  4.75500000E+01 -0.058463
  2 S  1.67600000E+01 -0.136463
  2 S  6.20700000E+00 -0.175740
  2 S  6.88200000E-01  0.603418

  3 S  1.75200000E+00  1.000000

  4 S  2.38400000E-01  1.000000

  5 S  7.37600000E-02  1.000000

  6 P  3.44600000E+01  0.015928
  6 P  7.74900000E+00  0.099740
  6 P  2.28000000E+00  0.310492

  7 P  7.15600000E-01  1.000000

  8 P  2.14000000E-01  1.000000

  9 P  5.97400000E-02  1.000000

 10 D  2.31400000E+00  1.000000

 11 D  6.45000000E-01  1.000000

 12 D  2.14000000E-01  1.000000

 13 F  1.42800000E+00  1.000000

 14 F  5.00000000E-01  1.000000

  H (Hydrogen)
  ------------
            Exponent  Coefficients 
       -------------- ---------------------------------------------------------
  1 S  3.38700000E+01  0.006068
  1 S  5.09500000E+00  0.045308
  1 S  1.15900000E+00  0.202822

  2 S  3.25800000E-01  1.000000

  3 S  1.02700000E-01  1.000000

  4 S  2.52600000E-02  1.000000

  5 P  1.40700000E+00  1.000000

  6 P  3.88000000E-01  1.000000

  7 P  1.02000000E-01  1.000000

  8 D  1.05700000E+00  1.000000

  9 D  2.47000000E-01  1.000000



 Summary of "ao basis" -> "ao basis" (spherical)
 ------------------------------------------------------------------------------
       Tag                 Description            Shells   Functions and Types
 ---------------- ------------------------------  ------  ---------------------
 C                        aug-cc-PVTZ               14       46   5s4p3d2f
 O                        aug-cc-PVTZ               14       46   5s4p3d2f
 H                        aug-cc-PVTZ                9       23   4s3p2d


                                 NWChem SCF Module
                                 -----------------


                             formaldehydeNotOptimized



  ao basis        = "ao basis"
  functions       =   138
  atoms           =     4
  closed shells   =     8
  open shells     =     0
  charge          =   0.00
  wavefunction    = RHF 
  input vectors   = atomic
  output vectors  = ./molecule.movecs
  use symmetry    = T
  symmetry adapt  = T


 Summary of "ao basis" -> "ao basis" (spherical)
 ------------------------------------------------------------------------------
       Tag                 Description            Shells   Functions and Types
 ---------------- ------------------------------  ------  ---------------------
 C                        aug-cc-PVTZ               14       46   5s4p3d2f
 O                        aug-cc-PVTZ               14       46   5s4p3d2f
 H                        aug-cc-PVTZ                9       23   4s3p2d


      Symmetry analysis of basis
      --------------------------

        a1         54
        a2         17
        b1         29
        b2         38


 Forming initial guess at       0.0s


      Superposition of Atomic Density Guess
      -------------------------------------

 Sum of atomic energies:        -113.45156645

      Non-variational initial energy
      ------------------------------

 Total energy =    -114.195793
 1-e energy   =    -216.867598
 2-e energy   =      70.902193
 HOMO         =      -0.331825
 LUMO         =      -0.045875


      Symmetry analysis of molecular orbitals - initial
      -------------------------------------------------

  Numbering of irreducible representations: 

     1 a1          2 a2          3 b1          4 b2      

  Orbital symmetries:

     1 a1          2 a1          3 a1          4 a1          5 b2      
     6 a1          7 b1          8 b2          9 b1         10 a1      
    11 b2         12 a1         13 b1         14 a1         15 b2      
    16 a1         17 b1         18 b2      


 Starting SCF solution at       0.2s



 ----------------------------------------------
         Quadratically convergent ROHF

 Convergence threshold     :          1.000E-04
 Maximum no. of iterations :           30
 Final Fock-matrix accuracy:          1.000E-07
 ----------------------------------------------


 Integral file          = ./molecule.aoints.0
 Record size in doubles =  65536        No. of integs per rec  =  43688
 Max. records in memory =    118        Max. records in file   = 145841
 No. of bits per label  =      8        No. of bits per value  =     64


 #quartets = 3.687D+05 #integrals = 1.268D+07 #direct =  0.0% #cached =100.0%


File balance: exchanges=     3  moved=    56  time=   0.0


              iter       energy          gnorm     gmax       time
             ----- ------------------- --------- --------- --------
                 1     -113.8471559891  1.08D+00  4.02D-01      0.9
                 2     -113.9083749717  2.88D-01  6.96D-02      1.0
                 3     -113.9151605901  1.26D-02  5.78D-03      1.1
                 4     -113.9151940562  9.73D-05  2.02D-05      1.3


       Final RHF  results 
       ------------------ 

         Total SCF energy =   -113.915194056214
      One-electron energy =   -218.265164967603
      Two-electron energy =     72.580359549835
 Nuclear repulsion energy =     31.769611361553

        Time for solution =      1.1s



       Symmetry analysis of molecular orbitals - final
       -----------------------------------------------

  Numbering of irreducible representations: 

     1 a1          2 a2          3 b1          4 b2      

  Orbital symmetries:

     1 a1          2 a1          3 a1          4 a1          5 b2      
     6 a1          7 b1          8 b2          9 a1         10 b2      
    11 b1         12 a1         13 b2         14 a1         15 b1      
    16 a1         17 b2         18 b1      

             Final eigenvalues
             -----------------

              1      
    1  -20.5775
    2  -11.3375
    3   -1.4227
    4   -0.8676
    5   -0.6995
    6   -0.6594
    7   -0.5478
    8   -0.4402
    9    0.0266
   10    0.0420
   11    0.0637
   12    0.0763
   13    0.1330
   14    0.1334
   15    0.1338
   16    0.1742
   17    0.1992
   18    0.2109

                       ROHF Final Molecular Orbital Analysis
                       -------------------------------------

 Vector    2  Occ=2.000000D+00  E=-1.133751D+01  Symmetry=a1
              MO Center=  2.0D-19,  1.5D-17, -5.2D-01, r^2= 2.7D-02
   Bfn.  Coefficient  Atom+Function         Bfn.  Coefficient  Atom+Function  
  ----- ------------  ---------------      ----- ------------  ---------------
     1      0.979000  1 C  s          

 Vector    3  Occ=2.000000D+00  E=-1.422704D+00  Symmetry=a1
              MO Center= -2.9D-16, -3.5D-16,  3.3D-01, r^2= 4.8D-01
   Bfn.  Coefficient  Atom+Function         Bfn.  Coefficient  Atom+Function  
  ----- ------------  ---------------      ----- ------------  ---------------
    48      0.466859  2 O  s                  2      0.252910  1 C  s          
    50      0.248392  2 O  s          

 Vector    4  Occ=2.000000D+00  E=-8.676086D-01  Symmetry=a1
              MO Center=  2.9D-16,  2.7D-15, -5.8D-01, r^2= 1.3D+00
   Bfn.  Coefficient  Atom+Function         Bfn.  Coefficient  Atom+Function  
  ----- ------------  ---------------      ----- ------------  ---------------
     2      0.398124  1 C  s                  4      0.306680  1 C  s          
    48     -0.221245  2 O  s                 50     -0.215043  2 O  s          

 Vector    5  Occ=2.000000D+00  E=-6.994939D-01  Symmetry=b2
              MO Center=  7.4D-30,  2.3D-16, -2.9D-01, r^2= 1.3D+00
   Bfn.  Coefficient  Atom+Function         Bfn.  Coefficient  Atom+Function  
  ----- ------------  ---------------      ----- ------------  ---------------
    10      0.293704  1 C  py                56      0.248383  2 O  py         
     7      0.218986  1 C  py                53      0.197095  2 O  py         
    59      0.169356  2 O  py         

 Vector    6  Occ=2.000000D+00  E=-6.594424D-01  Symmetry=a1
              MO Center= -2.0D-31, -7.0D-19,  3.9D-01, r^2= 1.2D+00
   Bfn.  Coefficient  Atom+Function         Bfn.  Coefficient  Atom+Function  
  ----- ------------  ---------------      ----- ------------  ---------------
    57      0.352175  2 O  pz                54      0.289098  2 O  pz         
    50      0.242518  2 O  s                 11     -0.227016  1 C  pz         
     8     -0.206120  1 C  pz                60      0.194921  2 O  pz         
    48      0.178302  2 O  s          

 Vector    7  Occ=2.000000D+00  E=-5.477991D-01  Symmetry=b1
              MO Center=  1.1D-16,  2.9D-14,  2.8D-01, r^2= 9.5D-01
   Bfn.  Coefficient  Atom+Function         Bfn.  Coefficient  Atom+Function  
  ----- ------------  ---------------      ----- ------------  ---------------
    55      0.355226  2 O  px                52      0.274105  2 O  px         
    58      0.248982  2 O  px                 9      0.233945  1 C  px         
     6      0.178481  1 C  px         

 Vector    8  Occ=2.000000D+00  E=-4.401591D-01  Symmetry=b2
              MO Center= -1.1D-15,  5.6D-15,  3.8D-03, r^2= 1.6D+00
   Bfn.  Coefficient  Atom+Function         Bfn.  Coefficient  Atom+Function  
  ----- ------------  ---------------      ----- ------------  ---------------
    56      0.379809  2 O  py                53      0.301313  2 O  py         
    59      0.301958  2 O  py                13     -0.241865  1 C  py         
    10     -0.156647  1 C  py         

 Vector    9  Occ=0.000000D+00  E= 2.664681D-02  Symmetry=a1
              MO Center= -1.7D-17,  9.3D-16, -2.2D+00, r^2= 1.6D+01
   Bfn.  Coefficient  Atom+Function         Bfn.  Coefficient  Atom+Function  
  ----- ------------  ---------------      ----- ------------  ---------------
     5      4.402244  1 C  s                  4      2.811190  1 C  s          
    96     -1.654857  3 H  s                119     -1.654857  4 H  s          
    51     -1.459399  2 O  s                 95     -1.459462  3 H  s          
   118     -1.459462  4 H  s                 63      0.356299  2 O  pz         
    50     -0.335179  2 O  s                104      0.332239  3 H  py         

 Vector   10  Occ=0.000000D+00  E= 4.204977D-02  Symmetry=b2
              MO Center=  9.6D-16, -1.2D-14, -2.0D+00, r^2= 2.2D+01
   Bfn.  Coefficient  Atom+Function         Bfn.  Coefficient  Atom+Function  
  ----- ------------  ---------------      ----- ------------  ---------------
    96      5.260074  3 H  s                119     -5.260074  4 H  s          
    16     -2.572473  1 C  py                95      1.910122  3 H  s          
   118     -1.910122  4 H  s                 13     -1.498952  1 C  py         
    62      0.475961  2 O  py               105      0.391207  3 H  pz         
   128     -0.391207  4 H  pz               104     -0.356510  3 H  py         

 Vector   11  Occ=0.000000D+00  E= 6.369816D-02  Symmetry=b1
              MO Center=  4.4D-17, -4.3D-17, -1.0D+00, r^2= 1.0D+01
   Bfn.  Coefficient  Atom+Function         Bfn.  Coefficient  Atom+Function  
  ----- ------------  ---------------      ----- ------------  ---------------
    15      1.473948  1 C  px                61     -0.729957  2 O  px         
    12      0.316853  1 C  px               103     -0.150365  3 H  px         
   126     -0.150365  4 H  px         

 Vector   12  Occ=0.000000D+00  E= 7.633317D-02  Symmetry=a1
              MO Center= -1.3D-17, -3.1D-15,  3.5D-01, r^2= 1.5D+01
   Bfn.  Coefficient  Atom+Function         Bfn.  Coefficient  Atom+Function  
  ----- ------------  ---------------      ----- ------------  ---------------
    51      3.968099  2 O  s                 17     -2.090047  1 C  pz         
    14     -1.753632  1 C  pz                95     -1.592230  3 H  s          
   118     -1.592230  4 H  s                 50      0.892790  2 O  s          
     5     -0.887097  1 C  s                 30     -0.663000  1 C  d  0       
    96     -0.395958  3 H  s                119     -0.395958  4 H  s          

 Vector   13  Occ=0.000000D+00  E= 1.330198D-01  Symmetry=b2
              MO Center= -9.5D-30, -4.6D-15, -7.6D-01, r^2= 1.8D+01
   Bfn.  Coefficient  Atom+Function         Bfn.  Coefficient  Atom+Function  
  ----- ------------  ---------------      ----- ------------  ---------------
    96      6.378368  3 H  s                119     -6.378368  4 H  s          
    95      5.773345  3 H  s                118     -5.773345  4 H  s          
    16     -5.433861  1 C  py                13     -3.874298  1 C  py         
    29      1.014848  1 C  d -1             104     -0.805870  3 H  py         
   127     -0.805870  4 H  py               105      0.595082  3 H  pz         

 Vector   14  Occ=0.000000D+00  E= 1.334159D-01  Symmetry=a1
              MO Center= -4.2D-17, -1.1D-13, -1.8D+00, r^2= 1.5D+01
   Bfn.  Coefficient  Atom+Function         Bfn.  Coefficient  Atom+Function  
  ----- ------------  ---------------      ----- ------------  ---------------
     5     11.279658  1 C  s                  4      7.066793  1 C  s          
    51     -4.725493  2 O  s                 95     -3.988746  3 H  s          
   118     -3.988746  4 H  s                 96     -2.372502  3 H  s          
   119     -2.372502  4 H  s                 63      1.230733  2 O  pz         
    50     -0.984306  2 O  s                104      0.822860  3 H  py         

 Vector   15  Occ=0.000000D+00  E= 1.338081D-01  Symmetry=b1
              MO Center=  4.6D-17,  4.5D-17, -1.3D-01, r^2= 6.0D+00
   Bfn.  Coefficient  Atom+Function         Bfn.  Coefficient  Atom+Function  
  ----- ------------  ---------------      ----- ------------  ---------------
    15      0.846759  1 C  px               103     -0.571416  3 H  px         
   126     -0.571416  4 H  px                58      0.364781  2 O  px         
     9     -0.273215  1 C  px                61      0.241098  2 O  px         
     6     -0.201260  1 C  px                55      0.186716  2 O  px         
    31      0.150890  1 C  d  1       

 Vector   16  Occ=0.000000D+00  E= 1.742314D-01  Symmetry=a1
              MO Center= -2.4D-18,  3.1D-15,  9.4D-01, r^2= 1.0D+01
   Bfn.  Coefficient  Atom+Function         Bfn.  Coefficient  Atom+Function  
  ----- ------------  ---------------      ----- ------------  ---------------
    51      3.617735  2 O  s                 63     -2.900703  2 O  pz         
    14     -2.554469  1 C  pz                95     -2.302334  3 H  s          
   118     -2.302334  4 H  s                  4      1.846381  1 C  s          
     5     -1.769080  1 C  s                104      1.465709  3 H  py         
   127     -1.465709  4 H  py                30      0.800508  1 C  d  0       

 Vector   17  Occ=0.000000D+00  E= 1.992451D-01  Symmetry=b2
              MO Center=  3.4D-30, -4.2D-15, -1.8D-01, r^2= 1.3D+01
   Bfn.  Coefficient  Atom+Function         Bfn.  Coefficient  Atom+Function  
  ----- ------------  ---------------      ----- ------------  ---------------
    96     -3.462158  3 H  s                119      3.462158  4 H  s          
    16      3.390623  1 C  py                62     -3.326273  2 O  py         
    29      2.456785  1 C  d -1              95      1.619333  3 H  s          
   118     -1.619333  4 H  s                105     -1.221290  3 H  pz         
   128      1.221290  4 H  pz                59     -0.857302  2 O  py         

 Vector   18  Occ=0.000000D+00  E= 2.109229D-01  Symmetry=b1
              MO Center= -3.2D-17, -8.0D-17,  8.3D-01, r^2= 1.0D+01
   Bfn.  Coefficient  Atom+Function         Bfn.  Coefficient  Atom+Function  
  ----- ------------  ---------------      ----- ------------  ---------------
    61      2.984702  2 O  px                15     -1.549837  1 C  px         
    31      1.064605  1 C  d  1              12     -0.638980  1 C  px         
    77      0.435925  2 O  d  1              58      0.322405  2 O  px         
   103     -0.296755  3 H  px               126     -0.296755  4 H  px         
    26      0.244414  1 C  d  1       

 Vector   19  Occ=0.000000D+00  E= 2.183266D-01  Symmetry=a1
              MO Center=  3.9D-15, -2.1D-13, -7.4D-01, r^2= 7.1D+00
   Bfn.  Coefficient  Atom+Function         Bfn.  Coefficient  Atom+Function  
  ----- ------------  ---------------      ----- ------------  ---------------
     4      5.088503  1 C  s                 51     -2.371899  2 O  s          
   104      1.256260  3 H  py               127     -1.256260  4 H  py         
    50     -1.206737  2 O  s                 63      1.032891  2 O  pz         
    30      0.965305  1 C  d  0              94     -0.671429  3 H  s          
   117     -0.671429  4 H  s                 14      0.444842  1 C  pz         

 Vector   20  Occ=0.000000D+00  E= 2.551620D-01  Symmetry=a2
              MO Center=  8.6D-19,  1.7D-15, -1.2D+00, r^2= 5.9D+00
   Bfn.  Coefficient  Atom+Function         Bfn.  Coefficient  Atom+Function  
  ----- ------------  ---------------      ----- ------------  ---------------
   103      1.723610  3 H  px               126     -1.723610  4 H  px         
    28     -0.518892  1 C  d -2              23     -0.274958  1 C  d -2       
   111     -0.220053  3 H  d -2             134     -0.220053  4 H  d -2       

 Vector   21  Occ=0.000000D+00  E= 2.566333D-01  Symmetry=a1
              MO Center= -1.8D-15,  9.8D-13, -2.6D-01, r^2= 1.1D+01
   Bfn.  Coefficient  Atom+Function         Bfn.  Coefficient  Atom+Function  
  ----- ------------  ---------------      ----- ------------  ---------------
    51      5.127479  2 O  s                 14     -3.904046  1 C  pz         
    17     -2.444007  1 C  pz                95     -1.808613  3 H  s          
   118     -1.808613  4 H  s                 50      1.366428  2 O  s          
    30     -1.017238  1 C  d  0              63      0.991377  2 O  pz         
     5     -0.938513  1 C  s                105      0.647416  3 H  pz         

 Vector   22  Occ=0.000000D+00  E= 2.815750D-01  Symmetry=b2
              MO Center=  9.9D-30,  1.1D-13, -3.5D-01, r^2= 1.0D+01
   Bfn.  Coefficient  Atom+Function         Bfn.  Coefficient  Atom+Function  
  ----- ------------  ---------------      ----- ------------  ---------------
    95      5.611933  3 H  s                118     -5.611933  4 H  s          
    16      4.358293  1 C  py                62     -3.366244  2 O  py         
    96     -2.854836  3 H  s                119      2.854836  4 H  s          
    13     -2.745507  1 C  py               104     -2.506441  3 H  py         
   127     -2.506441  4 H  py               105      2.176070  3 H  pz         

 Vector   23  Occ=0.000000D+00  E= 3.218372D-01  Symmetry=b1
              MO Center= -4.8D-16,  6.7D-17, -1.1D+00, r^2= 8.0D+00
   Bfn.  Coefficient  Atom+Function         Bfn.  Coefficient  Atom+Function  
  ----- ------------  ---------------      ----- ------------  ---------------
    12      3.894130  1 C  px               103     -2.655229  3 H  px         
   126     -2.655229  4 H  px                15      1.279030  1 C  px         
    31      0.822053  1 C  d  1              61     -0.443057  2 O  px         
     9      0.425204  1 C  px                58     -0.405384  2 O  px         
   111      0.288228  3 H  d -2             134     -0.288228  4 H  d -2       

 Vector   24  Occ=0.000000D+00  E= 3.386342D-01  Symmetry=b2
              MO Center= -1.8D-28, -1.2D-12, -9.4D-01, r^2= 9.7D+00
   Bfn.  Coefficient  Atom+Function         Bfn.  Coefficient  Atom+Function  
  ----- ------------  ---------------      ----- ------------  ---------------
    16      4.218297  1 C  py                96     -3.509017  3 H  s          
   119      3.509017  4 H  s                 13      3.106960  1 C  py         
   104     -2.248499  3 H  py               127     -2.248499  4 H  py         
   105     -1.576893  3 H  pz               128      1.576893  4 H  pz         
    95     -1.505295  3 H  s                118      1.505295  4 H  s          

 Vector   25  Occ=0.000000D+00  E= 3.387213D-01  Symmetry=a1
              MO Center= -5.7D-18, -3.6D-15, -5.5D-02, r^2= 1.0D+01
   Bfn.  Coefficient  Atom+Function         Bfn.  Coefficient  Atom+Function  
  ----- ------------  ---------------      ----- ------------  ---------------
    51     14.623400  2 O  s                  5     -7.226298  1 C  s          
    95     -5.931526  3 H  s                118     -5.931526  4 H  s          
   105     -4.818823  3 H  pz               128     -4.818823  4 H  pz         
    30     -4.236588  1 C  d  0              63     -4.098060  2 O  pz         
    32     -2.941410  1 C  d  2               4      2.370514  1 C  s          

 Vector   26  Occ=0.000000D+00  E= 3.589745D-01  Symmetry=a1
              MO Center= -5.4D-17,  1.1D-13, -7.4D-01, r^2= 9.0D+00
   Bfn.  Coefficient  Atom+Function         Bfn.  Coefficient  Atom+Function  
  ----- ------------  ---------------      ----- ------------  ---------------
     5     10.882646  1 C  s                  4     10.420734  1 C  s          
    95     -6.542216  3 H  s                118     -6.542216  4 H  s          
    51     -5.067808  2 O  s                 32     -2.295246  1 C  d  2       
    14     -2.036474  1 C  pz                50     -1.757291  2 O  s          
    94     -1.669718  3 H  s                117     -1.669718  4 H  s          

 Vector   27  Occ=0.000000D+00  E= 3.889671D-01  Symmetry=a2
              MO Center= -3.1D-15, -1.3D-12, -5.0D-01, r^2= 7.2D+00
   Bfn.  Coefficient  Atom+Function         Bfn.  Coefficient  Atom+Function  
  ----- ------------  ---------------      ----- ------------  ---------------
    28      3.597566  1 C  d -2             103     -3.475825  3 H  px         
   126      3.475825  4 H  px                23      0.279522  1 C  d -2       
   111      0.245244  3 H  d -2             134      0.245244  4 H  d -2       
   114      0.229109  3 H  d  1             137     -0.229109  4 H  d  1       
    74     -0.205402  2 O  d -2             100     -0.199438  3 H  px         

 Vector   28  Occ=0.000000D+00  E= 3.889826D-01  Symmetry=a1
              MO Center=  2.5D-15, -6.4D-13, -1.3D+00, r^2= 8.5D+00
   Bfn.  Coefficient  Atom+Function         Bfn.  Coefficient  Atom+Function  
  ----- ------------  ---------------      ----- ------------  ---------------
     4     20.345899  1 C  s                 95    -11.084574  3 H  s          
   118    -11.084574  4 H  s                  5      5.471842  1 C  s          
    14     -3.722461  1 C  pz               104      3.546332  3 H  py         
   127     -3.546332  4 H  py               105     -2.792170  3 H  pz         
   128     -2.792170  4 H  pz                94     -1.662125  3 H  s          

 Vector   29  Occ=0.000000D+00  E= 3.962642D-01  Symmetry=b2
              MO Center=  1.5D-15,  2.1D-14, -1.0D+00, r^2= 9.7D+00
   Bfn.  Coefficient  Atom+Function         Bfn.  Coefficient  Atom+Function  
  ----- ------------  ---------------      ----- ------------  ---------------
    95     27.625309  3 H  s                118    -27.625309  4 H  s          
    13    -17.477820  1 C  py               104     -7.806062  3 H  py         
   127     -7.806062  4 H  py                29      3.536526  1 C  d -1       
   105      3.253301  3 H  pz               128     -3.253301  4 H  pz         
    96      2.469316  3 H  s                119     -2.469316  4 H  s          

 Vector   30  Occ=0.000000D+00  E= 4.211793D-01  Symmetry=b1
              MO Center=  4.5D-16,  1.3D-12, -3.6D-01, r^2= 6.8D+00
   Bfn.  Coefficient  Atom+Function         Bfn.  Coefficient  Atom+Function  
  ----- ------------  ---------------      ----- ------------  ---------------
    31      2.979690  1 C  d  1              58      2.076567  2 O  px         
    61      2.071108  2 O  px               103     -1.276939  3 H  px         
   126     -1.276939  4 H  px                77      0.652130  2 O  d  1       
    12     -0.533786  1 C  px                26      0.528573  1 C  d  1       
    15     -0.471714  1 C  px                44      0.303405  1 C  f  1       

 Vector   31  Occ=0.000000D+00  E= 4.848919D-01  Symmetry=a1
              MO Center= -1.6D-15, -4.3D-14, -7.7D-01, r^2= 7.6D+00
   Bfn.  Coefficient  Atom+Function         Bfn.  Coefficient  Atom+Function  
  ----- ------------  ---------------      ----- ------------  ---------------
     4      8.099308  1 C  s                 30     -5.637445  1 C  d  0       
   105     -4.746704  3 H  pz               128     -4.746704  4 H  pz         
    95     -4.664429  3 H  s                118     -4.664429  4 H  s          
    14      4.275061  1 C  pz                32     -3.327401  1 C  d  2       
     5      2.797455  1 C  s                 60      2.503865  2 O  pz         

 Vector   32  Occ=0.000000D+00  E= 5.015631D-01  Symmetry=b2
              MO Center= -2.5D-14, -3.7D-13, -4.9D-01, r^2= 7.0D+00
   Bfn.  Coefficient  Atom+Function         Bfn.  Coefficient  Atom+Function  
  ----- ------------  ---------------      ----- ------------  ---------------
    29      5.204973  1 C  d -1             105     -2.864890  3 H  pz         
   128      2.864890  4 H  pz                59     -2.210829  2 O  py         
    62     -2.137458  2 O  py                95      1.804914  3 H  s          
   118     -1.804914  4 H  s                 16      1.311427  1 C  py         
    96     -1.281881  3 H  s                119      1.281881  4 H  s          


 center of mass
 --------------
 x =   0.00000000 y =   0.00000000 z =   0.13779494

 moments of inertia (a.u.)
 ------------------
          51.167336677398           0.000000000000           0.000000000000
           0.000000000000          44.907817817247           0.000000000000
           0.000000000000           0.000000000000           6.259518860151

  Mulliken analysis of the total density
  --------------------------------------

    Atom       Charge   Shell Charges
 -----------   ------   -------------------------------------------------------
    1 C    6     6.44   1.96  0.84  0.17  0.57  0.02  0.77  1.34  0.49 -0.00  0.04  0.15  0.05  0.01  0.02
    2 O    8     8.49   1.95  1.02  0.24  0.63  0.07  1.24  2.12  1.11  0.05  0.00  0.03  0.01  0.00  0.00
    3 H    1     0.54   0.27  0.38 -0.11 -0.00  0.01  0.00 -0.00  0.00 -0.00
    4 H    1     0.54   0.27  0.38 -0.11 -0.00  0.01  0.00 -0.00  0.00 -0.00

       Multipole analysis of the density wrt the origin
       ------------------------------------------------

     L   x y z        total         open         nuclear
     -   - - -        -----         ----         -------
     0   0 0 0     -0.000000      0.000000     16.000000

     1   1 0 0      0.000000      0.000000      0.000000
     1   0 1 0     -0.000000      0.000000      0.000000
     1   0 0 1     -1.072731      0.000000      0.000000

     2   2 0 0     -8.685314      0.000000      0.000000
     2   1 1 0      0.000000      0.000000      0.000000
     2   1 0 1     -0.000000      0.000000      0.000000
     2   0 2 0     -8.507290      0.000000      6.210918
     2   0 1 1     -0.000000      0.000000      0.000000
     2   0 0 2     -9.024640      0.000000     27.065061


------------------------------------------------------------
EAF file 0: "./molecule.aoints.0" size=13107200 bytes
------------------------------------------------------------
               write      read    awrite     aread      wait
               -----      ----    ------     -----      ----
     calls:       25         1         0        24        24
   data(b): 1.31e+07  5.24e+05  0.00e+00  1.26e+07
   time(s): 0.00e+00  0.00e+00  0.00e+00  0.00e+00  0.00e+00
rate(mb/s): 0.00e+00  0.00e+00
------------------------------------------------------------


 Parallel integral file used     291 records with       0 large values


 Task  times  cpu:        1.4s     wall:        1.4s


                                NWChem Input Module
                                -------------------


 Summary of allocated global arrays
-----------------------------------
  No active global arrays


MA_summarize_allocated_blocks: starting scan ...
MA_summarize_allocated_blocks: scan completed: 0 heap blocks, 0 stack blocks
MA usage statistics:

	allocation statistics:
					      heap	     stack
					      ----	     -----
	current number of blocks	         0	         0
	maximum number of blocks	        18	        14
	current total bytes		         0	         0
	maximum total bytes		  61895912	  29261352
	maximum total K-bytes		     61896	     29262
	maximum total M-bytes		        62	        30


                                     CITATION
                                     --------
                Please cite the following reference when publishing
                           results obtained with NWChem:

          E. Apra, E. J. Bylaska, W. A. de Jong, N. Govind, K. Kowalski,
       T. P. Straatsma, M. Valiev, H. J. J. van Dam, Y. Alexeev, J. Anchell,
       V. Anisimov, F. W. Aquino, R. Atta-Fynn, J. Autschbach, N. P. Bauman,
     J. C. Becca, D. E. Bernholdt, K. Bhaskaran-Nair, S. Bogatko, P. Borowski,
         J. Boschen, J. Brabec, A. Bruner, E. Cauet, Y. Chen, G. N. Chuev,
      C. J. Cramer, J. Daily, M. J. O. Deegan, T. H. Dunning Jr., M. Dupuis,
   K. G. Dyall, G. I. Fann, S. A. Fischer, A. Fonari, H. Fruchtl, L. Gagliardi,
      J. Garza, N. Gawande, S. Ghosh, K. Glaesemann, A. W. Gotz, J. Hammond,
       V. Helms, E. D. Hermes, K. Hirao, S. Hirata, M. Jacquelin, L. Jensen,
   B. G. Johnson, H. Jonsson, R. A. Kendall, M. Klemm, R. Kobayashi, V. Konkov,
      S. Krishnamoorthy, M. Krishnan, Z. Lin, R. D. Lins, R. J. Littlefield,
      A. J. Logsdail, K. Lopata, W. Ma, A. V. Marenich, J. Martin del Campo,
   D. Mejia-Rodriguez, J. E. Moore, J. M. Mullin, T. Nakajima, D. R. Nascimento,
    J. A. Nichols, P. J. Nichols, J. Nieplocha, A. Otero-de-la-Roza, B. Palmer,
    A. Panyala, T. Pirojsirikul, B. Peng, R. Peverati, J. Pittner, L. Pollack,
   R. M. Richard, P. Sadayappan, G. C. Schatz, W. A. Shelton, D. W. Silverstein,
   D. M. A. Smith, T. A. Soares, D. Song, M. Swart, H. L. Taylor, G. S. Thomas,
            V. Tipparaju, D. G. Truhlar, K. Tsemekhman, T. Van Voorhis,
      A. Vazquez-Mayagoitia, P. Verma, O. Villa, A. Vishnu, K. D. Vogiatzis,
        D. Wang, J. H. Weare, M. J. Williamson, T. L. Windus, K. Wolinski,
        A. T. Wong, Q. Wu, C. Yang, Q. Yu, M. Zacharias, Z. Zhang, Y. Zhao,
                                and R. J. Harrison
                        "NWChem: Past, present, and future
                         J. Chem. Phys. 152, 184102 (2020)
                               doi:10.1063/5.0004997

                                      AUTHORS
                                      -------
  E. Apra, E. J. Bylaska, N. Govind, K. Kowalski, M. Valiev, D. Mejia-Rodriguez,
       A. Kunitsa, N. P. Bauman, A. Panyala, W. A. de Jong, T. P. Straatsma,
   H. J. J. van Dam, D. Wang, T. L. Windus, J. Hammond, J. Autschbach, A. Woods,
    K. Bhaskaran-Nair, J. Brabec, K. Lopata, S. A. Fischer, S. Krishnamoorthy,
     M. Jacquelin, W. Ma, M. Klemm, O. Villa, Y. Chen, V. Anisimov, F. Aquino,
     S. Hirata, M. T. Hackler, E. Hermes, L. Jensen, J. E. Moore, J. C. Becca,
      V. Konjkov, T. Risthaus, M. Malagoli, A. Marenich, A. Otero-de-la-Roza,
        J. Mullin, P. Nichols, R. Peverati, J. Pittner, Y. Zhao, P.-D. Fan,
        A. Fonari, M. J. Williamson, R. J. Harrison, J. R. Rehr, M. Dupuis,
     D. Silverstein, D. M. A. Smith, J. Nieplocha, V. Tipparaju, M. Krishnan,
     B. E. Van Kuiken, A. Vazquez-Mayagoitia, M. Swart, Q. Wu, T. Van Voorhis,
     A. A. Auer, M. Nooijen, L. D. Crosby, E. Brown, G. Cisneros, G. I. Fann,
   H. Fruchtl, J. Garza, K. Hirao, R. A. Kendall, J. A. Nichols, K. Tsemekhman,
    K. Wolinski, J. Anchell, D. E. Bernholdt, P. Borowski, T. Clark, D. Clerc,
   H. Dachsel, M. J. O. Deegan, K. Dyall, D. Elwood, E. Glendening, M. Gutowski,
   A. C. Hess, J. Jaffe, B. G. Johnson, J. Ju, R. Kobayashi, R. Kutteh, Z. Lin,
   R. Littlefield, X. Long, B. Meng, T. Nakajima, S. Niu, L. Pollack, M. Rosing,
   K. Glaesemann, G. Sandrone, M. Stave, H. Taylor, G. Thomas, J. H. van Lenthe,
                               A. T. Wong, Z. Zhang.

 Total times  cpu:        1.5s     wall:        1.5s
