 argument  1 = ../../diethyletherOptimized.txt



============================== echo of input deck ==============================
echo

start molecule

title "diethylether"
memory total 2 gb

charge 0
geometry units angstrom print xyz
 O     0.00000000     0.00000000    -0.22784882
 C    -1.17572811     0.00000000     0.52502392
 C     1.17572811     0.00000000     0.52502392
 C    -2.35878452     0.00000000    -0.41940646
 C     2.35878452     0.00000000    -0.41940646
 H    -1.20754240     0.88298938     1.17637288
 H    -1.20754240    -0.88298938     1.17637288
 H     1.20754240    -0.88298938     1.17637288
 H     1.20754240     0.88298938     1.17637288
 H    -3.29612084     0.00000000     0.14134896
 H    -2.33527916    -0.88415659    -1.05869291
 H    -2.33527916     0.88415659    -1.05869291
 H     3.29612084     0.00000000     0.14134896
 H     2.33527916    -0.88415659    -1.05869291
 H     2.33527916     0.88415659    -1.05869291

end

basis spherical
 * library STO-3G
end

task scf
================================================================================


                                         
                                         


             Northwest Computational Chemistry Package (NWChem) 7.2.2
             --------------------------------------------------------


                    Environmental Molecular Sciences Laboratory
                       Pacific Northwest National Laboratory
                                Richland, WA 99352

                              Copyright (c) 1994-2022
                       Pacific Northwest National Laboratory
                            Battelle Memorial Institute

             NWChem is an open-source computational chemistry package
                        distributed under the terms of the
                      Educational Community License (ECL) 2.0
             A copy of the license is included with this distribution
                              in the LICENSE.TXT file

                                  ACKNOWLEDGMENT
                                  --------------

            This software and its documentation were developed at the
            EMSL at Pacific Northwest National Laboratory, a multiprogram
            national laboratory, operated for the U.S. Department of Energy
            by Battelle under Contract Number DE-AC05-76RL01830. Support
            for this work was provided by the Department of Energy Office
            of Biological and Environmental Research, Office of Basic
            Energy Sciences, and the Office of Advanced Scientific Computing.


           Job information
           ---------------

    hostname        = Eliass-MacBook-Air.local
    program         = nwchem
    date            = Mon Feb 19 12:32:56 2024

    compiled        = Sun_Dec_10_10:51:21_2023
    source          = /private/tmp/nwchem-20231210-5888-3uvdjr/nwchem-7.2.2
    nwchem branch   = 7.2.2
    nwchem revision = 74936fb9
    ga revision     = 5.8.0
    use scalapack   = T
    input           = ../../diethyletherOptimized.txt
    prefix          = molecule.
    data base       = ./molecule.db
    status          = startup
    nproc           =        4
    time left       =     -1s



           Memory information
           ------------------

    heap     =   67108860 doubles =    512.0 Mbytes
    stack    =   67108865 doubles =    512.0 Mbytes
    global   =  134217728 doubles =   1024.0 Mbytes (distinct from heap & stack)
    total    =  268435453 doubles =   2048.0 Mbytes
    verify   = yes
    hardfail = no 


           Directory information
           ---------------------

  0 permanent = .
  0 scratch   = .




                                NWChem Input Module
                                -------------------


                                   diethylether
                                   ------------

 Scaling coordinates for geometry "geometry" by  1.889725989
 (inverse scale =  0.529177249)

 C2V symmetry detected

          ------
          auto-z
          ------
  no constraints, skipping    0.0000000000000000     
  no constraints, skipping    0.0000000000000000     


                             Geometry "geometry" -> ""
                             -------------------------

 Output coordinates in angstroms (scale by  1.889725989 to convert to a.u.)

  No.       Tag          Charge          X              Y              Z
 ---- ---------------- ---------- -------------- -------------- --------------
    1 O                    8.0000     0.00000000     0.00000000    -0.23256398
    2 C                    6.0000    -1.17572811     0.00000000     0.52030876
    3 C                    6.0000     1.17572811     0.00000000     0.52030876
    4 C                    6.0000    -2.35878452     0.00000000    -0.42412162
    5 C                    6.0000     2.35878452     0.00000000    -0.42412162
    6 H                    1.0000    -1.20754240     0.88298938     1.17165772
    7 H                    1.0000    -1.20754240    -0.88298938     1.17165772
    8 H                    1.0000     1.20754240    -0.88298938     1.17165772
    9 H                    1.0000     1.20754240     0.88298938     1.17165772
   10 H                    1.0000    -3.29612084     0.00000000     0.13663380
   11 H                    1.0000    -2.33527916    -0.88415659    -1.06340807
   12 H                    1.0000    -2.33527916     0.88415659    -1.06340807
   13 H                    1.0000     3.29612084     0.00000000     0.13663380
   14 H                    1.0000     2.33527916    -0.88415659    -1.06340807
   15 H                    1.0000     2.33527916     0.88415659    -1.06340807

      Atomic Mass 
      ----------- 

      O                 15.994910
      C                 12.000000
      H                  1.007825


 Effective nuclear repulsion energy (a.u.)     190.8378039837

            Nuclear Dipole moment (a.u.) 
            ----------------------------
        X                 Y               Z
 ---------------- ---------------- ----------------
     0.0000000000     0.0000000000    -0.0000000000

      Symmetry information
      --------------------

 Group name             C2v       
 Group number             16
 Group order               4
 No. of unique centers     6

      Symmetry unique atoms

     1    2    4    6   10   11



                                Z-matrix (autoz)
                                -------- 

 Units are Angstrom for bonds and degrees for angles

      Type          Name      I     J     K     L     M      Value
      ----------- --------  ----- ----- ----- ----- ----- ----------
    1 Stretch                  1     2                       1.39612
    2 Stretch                  1     3                       1.39612
    3 Stretch                  2     4                       1.51379
    4 Stretch                  2     6                       1.09770
    5 Stretch                  2     7                       1.09770
    6 Stretch                  3     5                       1.51379
    7 Stretch                  3     8                       1.09770
    8 Stretch                  3     9                       1.09770
    9 Stretch                  4    10                       1.09227
   10 Stretch                  4    11                       1.09132
   11 Stretch                  4    12                       1.09132
   12 Stretch                  5    13                       1.09227
   13 Stretch                  5    14                       1.09132
   14 Stretch                  5    15                       1.09132
   15 Bend                     1     2     4               108.76644
   16 Bend                     1     2     6               110.14473
   17 Bend                     1     2     7               110.14473
   18 Bend                     1     3     5               108.76644
   19 Bend                     1     3     8               110.14473
   20 Bend                     1     3     9               110.14473
   21 Bend                     2     1     3               114.73339
   22 Bend                     2     4    10               110.51004
   23 Bend                     2     4    11               110.40379
   24 Bend                     2     4    12               110.40379
   25 Bend                     3     5    13               110.51004
   26 Bend                     3     5    14               110.40379
   27 Bend                     3     5    15               110.40379
   28 Bend                     4     2     6               110.33741
   29 Bend                     4     2     7               110.33741
   30 Bend                     5     3     8               110.33741
   31 Bend                     5     3     9               110.33741
   32 Bend                     6     2     7               107.10509
   33 Bend                     8     3     9               107.10509
   34 Bend                    10     4    11               108.61590
   35 Bend                    10     4    12               108.61590
   36 Bend                    11     4    12               108.22587
   37 Bend                    13     5    14               108.61590
   38 Bend                    13     5    15               108.61590
   39 Bend                    14     5    15               108.22587
   40 Torsion                  1     2     4    10         180.00000
   41 Torsion                  1     2     4    11          59.81516
   42 Torsion                  1     2     4    12         -59.81516
   43 Torsion                  1     3     5    13         180.00000
   44 Torsion                  1     3     5    14         -59.81516
   45 Torsion                  1     3     5    15          59.81516
   46 Torsion                  2     1     3     5         180.00000
   47 Torsion                  2     1     3     8          58.96108
   48 Torsion                  2     1     3     9         -58.96108
   49 Torsion                  3     1     2     4         180.00000
   50 Torsion                  3     1     2     6          58.96108
   51 Torsion                  3     1     2     7         -58.96108
   52 Torsion                  6     2     4    10         -59.07942
   53 Torsion                  6     2     4    11        -179.26426
   54 Torsion                  6     2     4    12          61.10542
   55 Torsion                  7     2     4    10          59.07942
   56 Torsion                  7     2     4    11         -61.10542
   57 Torsion                  7     2     4    12         179.26426
   58 Torsion                  8     3     5    13         -59.07942
   59 Torsion                  8     3     5    14          61.10542
   60 Torsion                  8     3     5    15        -179.26426
   61 Torsion                  9     3     5    13          59.07942
   62 Torsion                  9     3     5    14         179.26426
   63 Torsion                  9     3     5    15         -61.10542


            XYZ format geometry
            -------------------
    15
 geometry
 O                     0.00000000     0.00000000    -0.23256398
 C                    -1.17572811     0.00000000     0.52030876
 C                     1.17572811     0.00000000     0.52030876
 C                    -2.35878452     0.00000000    -0.42412162
 C                     2.35878452     0.00000000    -0.42412162
 H                    -1.20754240     0.88298938     1.17165772
 H                    -1.20754240    -0.88298938     1.17165772
 H                     1.20754240    -0.88298938     1.17165772
 H                     1.20754240     0.88298938     1.17165772
 H                    -3.29612084     0.00000000     0.13663380
 H                    -2.33527916    -0.88415659    -1.06340807
 H                    -2.33527916     0.88415659    -1.06340807
 H                     3.29612084     0.00000000     0.13663380
 H                     2.33527916    -0.88415659    -1.06340807
 H                     2.33527916     0.88415659    -1.06340807

 ==============================================================================
                                internuclear distances
 ------------------------------------------------------------------------------
       center one      |      center two      | atomic units |  angstroms
 ------------------------------------------------------------------------------
    2 C                |   1 O                |     2.63829  |     1.39612
    3 C                |   1 O                |     2.63829  |     1.39612
    4 C                |   2 C                |     2.86066  |     1.51379
    5 C                |   3 C                |     2.86066  |     1.51379
    6 H                |   2 C                |     2.07435  |     1.09770
    7 H                |   2 C                |     2.07435  |     1.09770
    8 H                |   3 C                |     2.07435  |     1.09770
    9 H                |   3 C                |     2.07435  |     1.09770
   10 H                |   4 C                |     2.06408  |     1.09227
   11 H                |   4 C                |     2.06229  |     1.09132
   12 H                |   4 C                |     2.06229  |     1.09132
   13 H                |   5 C                |     2.06408  |     1.09227
   14 H                |   5 C                |     2.06229  |     1.09132
   15 H                |   5 C                |     2.06229  |     1.09132
 ------------------------------------------------------------------------------
                         number of included internuclear distances:         14
 ==============================================================================



 ==============================================================================
                                 internuclear angles
 ------------------------------------------------------------------------------
        center 1       |       center 2       |       center 3       |  degrees
 ------------------------------------------------------------------------------
    2 C                |   1 O                |   3 C                |   114.73
    1 O                |   2 C                |   4 C                |   108.77
    1 O                |   2 C                |   6 H                |   110.14
    1 O                |   2 C                |   7 H                |   110.14
    4 C                |   2 C                |   6 H                |   110.34
    4 C                |   2 C                |   7 H                |   110.34
    6 H                |   2 C                |   7 H                |   107.11
    1 O                |   3 C                |   5 C                |   108.77
    1 O                |   3 C                |   8 H                |   110.14
    1 O                |   3 C                |   9 H                |   110.14
    5 C                |   3 C                |   8 H                |   110.34
    5 C                |   3 C                |   9 H                |   110.34
    8 H                |   3 C                |   9 H                |   107.11
    2 C                |   4 C                |  10 H                |   110.51
    2 C                |   4 C                |  11 H                |   110.40
    2 C                |   4 C                |  12 H                |   110.40
   10 H                |   4 C                |  11 H                |   108.62
   10 H                |   4 C                |  12 H                |   108.62
   11 H                |   4 C                |  12 H                |   108.23
    3 C                |   5 C                |  13 H                |   110.51
    3 C                |   5 C                |  14 H                |   110.40
    3 C                |   5 C                |  15 H                |   110.40
   13 H                |   5 C                |  14 H                |   108.62
   13 H                |   5 C                |  15 H                |   108.62
   14 H                |   5 C                |  15 H                |   108.23
 ------------------------------------------------------------------------------
                            number of included internuclear angles:         25
 ==============================================================================



  library name resolved from: .nwchemrc
  library file name is: </opt/homebrew/Cellar/nwchem/7.2.2/share/nwchem/libraries/>
  


 Summary of "ao basis" -> "" (spherical)
 ------------------------------------------------------------------------------
       Tag                 Description            Shells   Functions and Types
 ---------------- ------------------------------  ------  ---------------------
 *                           STO-3G                   on all atoms 


                      Basis "ao basis" -> "ao basis" (spherical)
                      -----
  O (Oxygen)
  ----------
            Exponent  Coefficients 
       -------------- ---------------------------------------------------------
  1 S  1.30709320E+02  0.154329
  1 S  2.38088610E+01  0.535328
  1 S  6.44360830E+00  0.444635

  2 S  5.03315130E+00 -0.099967
  2 S  1.16959610E+00  0.399513
  2 S  3.80389000E-01  0.700115

  3 P  5.03315130E+00  0.155916
  3 P  1.16959610E+00  0.607684
  3 P  3.80389000E-01  0.391957

  C (Carbon)
  ----------
            Exponent  Coefficients 
       -------------- ---------------------------------------------------------
  1 S  7.16168370E+01  0.154329
  1 S  1.30450960E+01  0.535328
  1 S  3.53051220E+00  0.444635

  2 S  2.94124940E+00 -0.099967
  2 S  6.83483100E-01  0.399513
  2 S  2.22289900E-01  0.700115

  3 P  2.94124940E+00  0.155916
  3 P  6.83483100E-01  0.607684
  3 P  2.22289900E-01  0.391957

  H (Hydrogen)
  ------------
            Exponent  Coefficients 
       -------------- ---------------------------------------------------------
  1 S  3.42525091E+00  0.154329
  1 S  6.23913730E-01  0.535328
  1 S  1.68855400E-01  0.444635



 Summary of "ao basis" -> "ao basis" (spherical)
 ------------------------------------------------------------------------------
       Tag                 Description            Shells   Functions and Types
 ---------------- ------------------------------  ------  ---------------------
 O                           STO-3G                  3        5   2s1p
 C                           STO-3G                  3        5   2s1p
 H                           STO-3G                  1        1   1s


                                 NWChem SCF Module
                                 -----------------


                                   diethylether



  ao basis        = "ao basis"
  functions       =    35
  atoms           =    15
  closed shells   =    21
  open shells     =     0
  charge          =   0.00
  wavefunction    = RHF 
  input vectors   = atomic
  output vectors  = ./molecule.movecs
  use symmetry    = T
  symmetry adapt  = T


 Summary of "ao basis" -> "ao basis" (spherical)
 ------------------------------------------------------------------------------
       Tag                 Description            Shells   Functions and Types
 ---------------- ------------------------------  ------  ---------------------
 O                           STO-3G                  3        5   2s1p
 C                           STO-3G                  3        5   2s1p
 H                           STO-3G                  1        1   1s


      Symmetry analysis of basis
      --------------------------

        a1         14
        a2          4
        b1         12
        b2          5


 Forming initial guess at       0.1s


      Superposition of Atomic Density Guess
      -------------------------------------

 Sum of atomic energies:        -227.15658402

      Non-variational initial energy
      ------------------------------

 Total energy =    -228.242045
 1-e energy   =    -690.613913
 2-e energy   =     271.534064
 HOMO         =      -0.157339
 LUMO         =       0.484275


      Symmetry analysis of molecular orbitals - initial
      -------------------------------------------------

  Numbering of irreducible representations: 

     1 a1          2 a2          3 b1          4 b2      

  Orbital symmetries:

     1 a1          2 a1          3 b1          4 a1          5 b1      
     6 a1          7 b1          8 a1          9 b1         10 a1      
    11 b1         12 b2         13 a2         14 a1         15 a1      
    16 b2         17 b1         18 a2         19 b1         20 a1      
    21 b2         22 a1         23 b1         24 b2         25 a2      
    26 a1         27 b1         28 a1         29 b1         30 a1      
    31 b1      


 Starting SCF solution at       0.1s



 ----------------------------------------------
         Quadratically convergent ROHF

 Convergence threshold     :          1.000E-04
 Maximum no. of iterations :           30
 Final Fock-matrix accuracy:          1.000E-07
 ----------------------------------------------


 #quartets = 1.534D+04 #integrals = 5.098D+04 #direct =  0.0% #cached =100.0%


 Integral file          = ./molecule.aoints.0
 Record size in doubles =  65536        No. of integs per rec  =  43688
 Max. records in memory =      3        Max. records in file   = 160460
 No. of bits per label  =      8        No. of bits per value  =     64


File balance: exchanges=     0  moved=     0  time=   0.0


              iter       energy          gnorm     gmax       time
             ----- ------------------- --------- --------- --------
                 1     -229.2297311090  8.33D-01  3.17D-01      0.1
                 2     -229.2912398023  2.39D-01  7.43D-02      0.1
                 3     -229.2959443031  6.07D-03  2.93D-03      0.2
                 4     -229.2959496367  1.42D-05  6.34D-06      0.2


       Final RHF  results 
       ------------------ 

         Total SCF energy =   -229.295949636695
      One-electron energy =   -690.639053842462
      Two-electron energy =    270.505300222068
 Nuclear repulsion energy =    190.837803983699

        Time for solution =      0.1s



       Symmetry analysis of molecular orbitals - final
       -----------------------------------------------

  Numbering of irreducible representations: 

     1 a1          2 a2          3 b1          4 b2      

  Orbital symmetries:

     1 a1          2 b1          3 a1          4 b1          5 a1      
     6 a1          7 b1          8 a1          9 b1         10 a1      
    11 b2         12 b1         13 a2         14 a1         15 a1      
    16 b2         17 b1         18 a2         19 b1         20 a1      
    21 b2         22 a1         23 b2         24 a2         25 b1      
    26 a1         27 b1         28 a1         29 b1         30 a1      
    31 a1      

             Final eigenvalues
             -----------------

              1      
    1  -20.2495
    2  -11.0920
    3  -11.0918
    4  -11.0392
    5  -11.0392
    6   -1.3097
    7   -1.0008
    8   -0.9423
    9   -0.8028
   10   -0.7844
   11   -0.6349
   12   -0.6111
   13   -0.5762
   14   -0.5463
   15   -0.5183
   16   -0.4932
   17   -0.4850
   18   -0.4547
   19   -0.4450
   20   -0.3751
   21   -0.3227
   22    0.5447
   23    0.6382
   24    0.6404
   25    0.6608
   26    0.6833
   27    0.6942
   28    0.7152
   29    0.7332
   30    0.7549
   31    0.7621

                       ROHF Final Molecular Orbital Analysis
                       -------------------------------------

 Vector    6  Occ=2.000000D+00  E=-1.309702D+00  Symmetry=a1
              MO Center=  2.6D-17,  1.0D-17,  1.7D-03, r^2= 7.5D-01
   Bfn.  Coefficient  Atom+Function         Bfn.  Coefficient  Atom+Function  
  ----- ------------  ---------------      ----- ------------  ---------------
     2      0.759030   1 O  s                 1     -0.214400   1 O  s         
     7      0.201037   2 C  s                12      0.201037   3 C  s         

 Vector    7  Occ=2.000000D+00  E=-1.000841D+00  Symmetry=b1
              MO Center=  7.3D-17, -4.5D-18,  4.0D-02, r^2= 4.4D+00
   Bfn.  Coefficient  Atom+Function         Bfn.  Coefficient  Atom+Function  
  ----- ------------  ---------------      ----- ------------  ---------------
     7      0.342529   2 C  s                12     -0.342529   3 C  s         
    17      0.312818   4 C  s                22     -0.312818   5 C  s         
     3     -0.158273   1 O  px        

 Vector    8  Occ=2.000000D+00  E=-9.422707D-01  Symmetry=a1
              MO Center= -3.0D-16,  9.9D-18, -1.6D-01, r^2= 5.8D+00
   Bfn.  Coefficient  Atom+Function         Bfn.  Coefficient  Atom+Function  
  ----- ------------  ---------------      ----- ------------  ---------------
    17      0.394295   4 C  s                22      0.394295   5 C  s         
     2     -0.285156   1 O  s                 7      0.183238   2 C  s         
    12      0.183238   3 C  s         

 Vector    9  Occ=2.000000D+00  E=-8.027767D-01  Symmetry=b1
              MO Center= -5.3D-17, -1.8D-18, -4.4D-02, r^2= 5.7D+00
   Bfn.  Coefficient  Atom+Function         Bfn.  Coefficient  Atom+Function  
  ----- ------------  ---------------      ----- ------------  ---------------
     7      0.336999   2 C  s                12     -0.336999   3 C  s         
    17     -0.321014   4 C  s                22      0.321014   5 C  s         
     3     -0.199893   1 O  px        

 Vector   10  Occ=2.000000D+00  E=-7.844071D-01  Symmetry=a1
              MO Center=  4.8D-17,  2.6D-19,  4.2D-01, r^2= 4.0D+00
   Bfn.  Coefficient  Atom+Function         Bfn.  Coefficient  Atom+Function  
  ----- ------------  ---------------      ----- ------------  ---------------
     2      0.354274   1 O  s                 7     -0.316514   2 C  s         
    12     -0.316514   3 C  s                17      0.195312   4 C  s         
    22      0.195312   5 C  s                10     -0.181947   2 C  pz        
    15     -0.181947   3 C  pz               26     -0.170103   6 H  s         
    27     -0.170103   7 H  s                28     -0.170103   8 H  s         

 Vector   11  Occ=2.000000D+00  E=-6.348602D-01  Symmetry=b2
              MO Center= -1.1D-16, -7.7D-18,  3.4D-01, r^2= 3.1D+00
   Bfn.  Coefficient  Atom+Function         Bfn.  Coefficient  Atom+Function  
  ----- ------------  ---------------      ----- ------------  ---------------
     4      0.355450   1 O  py                9      0.333607   2 C  py        
    14      0.333607   3 C  py               26      0.197244   6 H  s         
    27     -0.197244   7 H  s                28     -0.197244   8 H  s         
    29      0.197244   9 H  s                19      0.165151   4 C  py        
    24      0.165151   5 C  py        

 Vector   12  Occ=2.000000D+00  E=-6.111369D-01  Symmetry=b1
              MO Center= -4.9D-17, -1.7D-17,  2.2D-01, r^2= 3.9D+00
   Bfn.  Coefficient  Atom+Function         Bfn.  Coefficient  Atom+Function  
  ----- ------------  ---------------      ----- ------------  ---------------
     3      0.386821   1 O  px               10      0.290202   2 C  pz        
    15     -0.290202   3 C  pz               30      0.168587  10 H  s         
    33     -0.168587  13 H  s                 8     -0.166198   2 C  px        
    13     -0.166198   3 C  px               18     -0.157440   4 C  px        
    23     -0.157440   5 C  px               20      0.152250   4 C  pz        

 Vector   13  Occ=2.000000D+00  E=-5.761694D-01  Symmetry=a2
              MO Center= -6.6D-17, -1.2D-17,  3.4D-02, r^2= 5.1D+00
   Bfn.  Coefficient  Atom+Function         Bfn.  Coefficient  Atom+Function  
  ----- ------------  ---------------      ----- ------------  ---------------
     9      0.292540   2 C  py               14     -0.292540   3 C  py        
    19      0.288815   4 C  py               24     -0.288815   5 C  py        
    31     -0.190187  11 H  s                32      0.190187  12 H  s         
    34      0.190187  14 H  s                35     -0.190187  15 H  s         
    26      0.188689   6 H  s                27     -0.188689   7 H  s         

 Vector   14  Occ=2.000000D+00  E=-5.463062D-01  Symmetry=a1
              MO Center=  7.3D-17,  5.2D-17, -7.0D-02, r^2= 4.9D+00
   Bfn.  Coefficient  Atom+Function         Bfn.  Coefficient  Atom+Function  
  ----- ------------  ---------------      ----- ------------  ---------------
     5      0.322964   1 O  pz               18     -0.318636   4 C  px        
    23      0.318636   5 C  px                8      0.278598   2 C  px        
    13     -0.278598   3 C  px               10      0.198320   2 C  pz        
    15      0.198320   3 C  pz               30      0.190097  10 H  s         
    33      0.190097  13 H  s         

 Vector   15  Occ=2.000000D+00  E=-5.182811D-01  Symmetry=a1
              MO Center= -2.7D-16,  9.1D-17, -3.6D-01, r^2= 7.5D+00
   Bfn.  Coefficient  Atom+Function         Bfn.  Coefficient  Atom+Function  
  ----- ------------  ---------------      ----- ------------  ---------------
    20      0.338714   4 C  pz               25      0.338714   5 C  pz        
    30      0.314878  10 H  s                33      0.314878  13 H  s         
     2      0.196761   1 O  s                18     -0.194708   4 C  px        
    23      0.194708   5 C  px               31     -0.183945  11 H  s         
    32     -0.183945  12 H  s                34     -0.183945  14 H  s         

 Vector   16  Occ=2.000000D+00  E=-4.932155D-01  Symmetry=b2
              MO Center=  2.6D-15,  2.3D-16, -5.4D-01, r^2= 6.0D+00
   Bfn.  Coefficient  Atom+Function         Bfn.  Coefficient  Atom+Function  
  ----- ------------  ---------------      ----- ------------  ---------------
    19      0.371776   4 C  py               24      0.371776   5 C  py        
    31     -0.281632  11 H  s                32      0.281632  12 H  s         
    34     -0.281632  14 H  s                35      0.281632  15 H  s         
     4     -0.273214   1 O  py        

 Vector   17  Occ=2.000000D+00  E=-4.849817D-01  Symmetry=b1
              MO Center=  1.5D-16,  5.7D-17, -1.3D-01, r^2= 6.3D+00
   Bfn.  Coefficient  Atom+Function         Bfn.  Coefficient  Atom+Function  
  ----- ------------  ---------------      ----- ------------  ---------------
    20      0.347457   4 C  pz               25     -0.347457   5 C  pz        
    10     -0.250462   2 C  pz               15      0.250462   3 C  pz        
    30      0.244161  10 H  s                33     -0.244161  13 H  s         
     3     -0.195746   1 O  px               31     -0.188451  11 H  s         
    32     -0.188451  12 H  s                34      0.188451  14 H  s         

 Vector   18  Occ=2.000000D+00  E=-4.547194D-01  Symmetry=a2
              MO Center= -2.2D-17, -1.5D-16,  6.2D-02, r^2= 5.3D+00
   Bfn.  Coefficient  Atom+Function         Bfn.  Coefficient  Atom+Function  
  ----- ------------  ---------------      ----- ------------  ---------------
     9      0.303190   2 C  py               14     -0.303190   3 C  py        
    19     -0.286939   4 C  py               24      0.286939   5 C  py        
    26      0.243614   6 H  s                27     -0.243614   7 H  s         
    28      0.243614   8 H  s                29     -0.243614   9 H  s         
    31      0.237563  11 H  s                32     -0.237563  12 H  s         

 Vector   19  Occ=2.000000D+00  E=-4.450389D-01  Symmetry=b1
              MO Center= -2.6D-17, -4.4D-17,  2.7D-02, r^2= 4.7D+00
   Bfn.  Coefficient  Atom+Function         Bfn.  Coefficient  Atom+Function  
  ----- ------------  ---------------      ----- ------------  ---------------
     8      0.378428   2 C  px               13      0.378428   3 C  px        
    18     -0.350542   4 C  px               23     -0.350542   5 C  px        
     3     -0.339434   1 O  px               30      0.218241  10 H  s         
    33     -0.218241  13 H  s         

 Vector   20  Occ=2.000000D+00  E=-3.751004D-01  Symmetry=a1
              MO Center= -5.3D-16, -2.8D-16, -3.7D-02, r^2= 1.9D+00
   Bfn.  Coefficient  Atom+Function         Bfn.  Coefficient  Atom+Function  
  ----- ------------  ---------------      ----- ------------  ---------------
     5      0.708533   1 O  pz                2     -0.376833   1 O  s         
    10     -0.261974   2 C  pz               15     -0.261974   3 C  pz        
    26     -0.166644   6 H  s                27     -0.166644   7 H  s         
    28     -0.166644   8 H  s                29     -0.166644   9 H  s         

 Vector   21  Occ=2.000000D+00  E=-3.227205D-01  Symmetry=b2
              MO Center= -2.5D-15,  5.9D-19,  1.4D-01, r^2= 1.5D+00
   Bfn.  Coefficient  Atom+Function         Bfn.  Coefficient  Atom+Function  
  ----- ------------  ---------------      ----- ------------  ---------------
     4      0.878338   1 O  py               26     -0.243130   6 H  s         
    27      0.243130   7 H  s                28      0.243130   8 H  s         
    29     -0.243130   9 H  s         

 Vector   22  Occ=0.000000D+00  E= 5.447115D-01  Symmetry=a1
              MO Center= -6.3D-18, -3.5D-16,  2.5D-01, r^2= 3.6D+00
   Bfn.  Coefficient  Atom+Function         Bfn.  Coefficient  Atom+Function  
  ----- ------------  ---------------      ----- ------------  ---------------
     2      0.682434   1 O  s                10      0.502713   2 C  pz        
    15      0.502713   3 C  pz                5      0.475339   1 O  pz        
     8     -0.422229   2 C  px               13      0.422229   3 C  px        
    30     -0.376663  10 H  s                33     -0.376663  13 H  s         
    20      0.262062   4 C  pz               25      0.262062   5 C  pz        

 Vector   23  Occ=0.000000D+00  E= 6.382231D-01  Symmetry=b2
              MO Center=  3.4D-16, -9.5D-18,  4.4D-02, r^2= 5.3D+00
   Bfn.  Coefficient  Atom+Function         Bfn.  Coefficient  Atom+Function  
  ----- ------------  ---------------      ----- ------------  ---------------
     9      0.524461   2 C  py               14      0.524461   3 C  py        
    19      0.494218   4 C  py               24      0.494218   5 C  py        
    31      0.434028  11 H  s                32     -0.434028  12 H  s         
    34      0.434028  14 H  s                35     -0.434028  15 H  s         
    26     -0.423852   6 H  s                27      0.423852   7 H  s         

 Vector   24  Occ=0.000000D+00  E= 6.404114D-01  Symmetry=a2
              MO Center= -2.6D-16, -3.4D-17,  1.4D-01, r^2= 5.2D+00
   Bfn.  Coefficient  Atom+Function         Bfn.  Coefficient  Atom+Function  
  ----- ------------  ---------------      ----- ------------  ---------------
     9      0.531200   2 C  py               14     -0.531200   3 C  py        
    19      0.472111   4 C  py               24     -0.472111   5 C  py        
    26     -0.468268   6 H  s                27      0.468268   7 H  s         
    28     -0.468268   8 H  s                29      0.468268   9 H  s         
    31      0.416505  11 H  s                32     -0.416505  12 H  s         

 Vector   25  Occ=0.000000D+00  E= 6.608376D-01  Symmetry=b1
              MO Center= -8.7D-17, -5.2D-18, -2.6D-02, r^2= 5.2D+00
   Bfn.  Coefficient  Atom+Function         Bfn.  Coefficient  Atom+Function  
  ----- ------------  ---------------      ----- ------------  ---------------
    18      0.587448   4 C  px               23      0.587448   5 C  px        
     8      0.557565   2 C  px               13      0.557565   3 C  px        
     3      0.511984   1 O  px               30      0.491043  10 H  s         
    33     -0.491043  13 H  s                31     -0.181009  11 H  s         
    32     -0.181009  12 H  s                34      0.181009  14 H  s         

 Vector   26  Occ=0.000000D+00  E= 6.833254D-01  Symmetry=a1
              MO Center=  3.7D-16, -5.3D-17, -2.4D-02, r^2= 4.5D+00
   Bfn.  Coefficient  Atom+Function         Bfn.  Coefficient  Atom+Function  
  ----- ------------  ---------------      ----- ------------  ---------------
    18      0.620527   4 C  px               23     -0.620527   5 C  px        
     8      0.501101   2 C  px               13     -0.501101   3 C  px        
     7     -0.462839   2 C  s                12     -0.462839   3 C  s         
    10      0.414827   2 C  pz               15      0.414827   3 C  pz        
    20      0.407125   4 C  pz               25      0.407125   5 C  pz        

 Vector   27  Occ=0.000000D+00  E= 6.941802D-01  Symmetry=b1
              MO Center= -8.5D-17,  8.0D-17,  4.9D-01, r^2= 4.6D+00
   Bfn.  Coefficient  Atom+Function         Bfn.  Coefficient  Atom+Function  
  ----- ------------  ---------------      ----- ------------  ---------------
    20      0.493399   4 C  pz               25     -0.493399   5 C  pz        
    10      0.464957   2 C  pz               15     -0.464957   3 C  pz        
     8      0.446707   2 C  px               13      0.446707   3 C  px        
    26     -0.399566   6 H  s                27     -0.399566   7 H  s         
    28      0.399566   8 H  s                29      0.399566   9 H  s         

 Vector   28  Occ=0.000000D+00  E= 7.152398D-01  Symmetry=a1
              MO Center=  5.2D-16, -4.4D-17,  7.0D-01, r^2= 3.3D+00
   Bfn.  Coefficient  Atom+Function         Bfn.  Coefficient  Atom+Function  
  ----- ------------  ---------------      ----- ------------  ---------------
     7      0.835730   2 C  s                12      0.835730   3 C  s         
    26     -0.531778   6 H  s                27     -0.531778   7 H  s         
    28     -0.531778   8 H  s                29     -0.531778   9 H  s         
     5     -0.409221   1 O  pz               10      0.349739   2 C  pz        
    15      0.349739   3 C  pz                2     -0.340582   1 O  s         

 Vector   29  Occ=0.000000D+00  E= 7.331507D-01  Symmetry=b1
              MO Center=  4.6D-16,  2.2D-16, -6.4D-01, r^2= 6.9D+00
   Bfn.  Coefficient  Atom+Function         Bfn.  Coefficient  Atom+Function  
  ----- ------------  ---------------      ----- ------------  ---------------
    17      0.664753   4 C  s                22     -0.664753   5 C  s         
    31     -0.538092  11 H  s                32     -0.538092  12 H  s         
    34      0.538092  14 H  s                35      0.538092  15 H  s         
    20     -0.510682   4 C  pz               25      0.510682   5 C  pz        
     7      0.464892   2 C  s                12     -0.464892   3 C  s         

 Vector   30  Occ=0.000000D+00  E= 7.548799D-01  Symmetry=a1
              MO Center= -8.7D-16,  2.8D-16, -6.6D-01, r^2= 6.5D+00
   Bfn.  Coefficient  Atom+Function         Bfn.  Coefficient  Atom+Function  
  ----- ------------  ---------------      ----- ------------  ---------------
    17      0.974404   4 C  s                22      0.974404   5 C  s         
    31     -0.570753  11 H  s                32     -0.570753  12 H  s         
    34     -0.570753  14 H  s                35     -0.570753  15 H  s         
     7     -0.463556   2 C  s                12     -0.463556   3 C  s         
    20     -0.315113   4 C  pz               25     -0.315113   5 C  pz        

 Vector   31  Occ=0.000000D+00  E= 7.620997D-01  Symmetry=a1
              MO Center= -1.8D-15,  1.2D-16,  7.1D-02, r^2= 7.5D+00
   Bfn.  Coefficient  Atom+Function         Bfn.  Coefficient  Atom+Function  
  ----- ------------  ---------------      ----- ------------  ---------------
    30      0.723194  10 H  s                33      0.723194  13 H  s         
    20     -0.517546   4 C  pz               25     -0.517546   5 C  pz        
    18      0.453193   4 C  px               23     -0.453193   5 C  px        
    17     -0.359614   4 C  s                22     -0.359614   5 C  s         
     8     -0.336740   2 C  px               13      0.336740   3 C  px        


 center of mass
 --------------
 x =  -0.00000000 y =   0.00000000 z =  -0.01784680

 moments of inertia (a.u.)
 ------------------
         100.339244215766           0.000000000000           0.000000000000
           0.000000000000         850.892250784291           0.000000000000
           0.000000000000           0.000000000000         795.509023781260

  Mulliken analysis of the total density
  --------------------------------------

    Atom       Charge   Shell Charges
 -----------   ------   -------------------------------------------------------
    1 O    8     8.27   2.00  1.80  4.48
    2 C    6     5.97   1.99  1.16  2.82
    3 C    6     5.97   1.99  1.16  2.82
    4 C    6     6.18   1.99  1.18  3.00
    5 C    6     6.18   1.99  1.18  3.00
    6 H    1     0.95   0.95
    7 H    1     0.95   0.95
    8 H    1     0.95   0.95
    9 H    1     0.95   0.95
   10 H    1     0.94   0.94
   11 H    1     0.93   0.93
   12 H    1     0.93   0.93
   13 H    1     0.94   0.94
   14 H    1     0.93   0.93
   15 H    1     0.93   0.93

       Multipole analysis of the density wrt the origin
       ------------------------------------------------

     L   x y z        total         open         nuclear
     -   - - -        -----         ----         -------
     0   0 0 0     -0.000000      0.000000     42.000000

     1   1 0 0     -0.000000      0.000000      0.000000
     1   0 1 0      0.000000      0.000000      0.000000
     1   0 0 1      0.417049      0.000000     -0.000000

     2   2 0 0    -21.748193      0.000000    473.987319
     2   1 1 0     -0.000000      0.000000      0.000000
     2   1 0 1      0.000000      0.000000      0.000000
     2   0 2 0    -22.942547      0.000000     22.303484
     2   0 1 1      0.000000      0.000000      0.000000
     2   0 0 2    -23.276446      0.000000     56.750297


 Parallel integral file used       4 records with       0 large values


 Task  times  cpu:        0.1s     wall:        0.1s


                                NWChem Input Module
                                -------------------


 Summary of allocated global arrays
-----------------------------------
  No active global arrays


MA_summarize_allocated_blocks: starting scan ...
MA_summarize_allocated_blocks: scan completed: 0 heap blocks, 0 stack blocks
MA usage statistics:

	allocation statistics:
					      heap	     stack
					      ----	     -----
	current number of blocks	         0	         0
	maximum number of blocks	        18	        14
	current total bytes		         0	         0
	maximum total bytes		   1596040	  22510184
	maximum total K-bytes		      1597	     22511
	maximum total M-bytes		         2	        23


                                     CITATION
                                     --------
                Please cite the following reference when publishing
                           results obtained with NWChem:

          E. Apra, E. J. Bylaska, W. A. de Jong, N. Govind, K. Kowalski,
       T. P. Straatsma, M. Valiev, H. J. J. van Dam, Y. Alexeev, J. Anchell,
       V. Anisimov, F. W. Aquino, R. Atta-Fynn, J. Autschbach, N. P. Bauman,
     J. C. Becca, D. E. Bernholdt, K. Bhaskaran-Nair, S. Bogatko, P. Borowski,
         J. Boschen, J. Brabec, A. Bruner, E. Cauet, Y. Chen, G. N. Chuev,
      C. J. Cramer, J. Daily, M. J. O. Deegan, T. H. Dunning Jr., M. Dupuis,
   K. G. Dyall, G. I. Fann, S. A. Fischer, A. Fonari, H. Fruchtl, L. Gagliardi,
      J. Garza, N. Gawande, S. Ghosh, K. Glaesemann, A. W. Gotz, J. Hammond,
       V. Helms, E. D. Hermes, K. Hirao, S. Hirata, M. Jacquelin, L. Jensen,
   B. G. Johnson, H. Jonsson, R. A. Kendall, M. Klemm, R. Kobayashi, V. Konkov,
      S. Krishnamoorthy, M. Krishnan, Z. Lin, R. D. Lins, R. J. Littlefield,
      A. J. Logsdail, K. Lopata, W. Ma, A. V. Marenich, J. Martin del Campo,
   D. Mejia-Rodriguez, J. E. Moore, J. M. Mullin, T. Nakajima, D. R. Nascimento,
    J. A. Nichols, P. J. Nichols, J. Nieplocha, A. Otero-de-la-Roza, B. Palmer,
    A. Panyala, T. Pirojsirikul, B. Peng, R. Peverati, J. Pittner, L. Pollack,
   R. M. Richard, P. Sadayappan, G. C. Schatz, W. A. Shelton, D. W. Silverstein,
   D. M. A. Smith, T. A. Soares, D. Song, M. Swart, H. L. Taylor, G. S. Thomas,
            V. Tipparaju, D. G. Truhlar, K. Tsemekhman, T. Van Voorhis,
      A. Vazquez-Mayagoitia, P. Verma, O. Villa, A. Vishnu, K. D. Vogiatzis,
        D. Wang, J. H. Weare, M. J. Williamson, T. L. Windus, K. Wolinski,
        A. T. Wong, Q. Wu, C. Yang, Q. Yu, M. Zacharias, Z. Zhang, Y. Zhao,
                                and R. J. Harrison
                        "NWChem: Past, present, and future
                         J. Chem. Phys. 152, 184102 (2020)
                               doi:10.1063/5.0004997

                                      AUTHORS
                                      -------
  E. Apra, E. J. Bylaska, N. Govind, K. Kowalski, M. Valiev, D. Mejia-Rodriguez,
       A. Kunitsa, N. P. Bauman, A. Panyala, W. A. de Jong, T. P. Straatsma,
   H. J. J. van Dam, D. Wang, T. L. Windus, J. Hammond, J. Autschbach, A. Woods,
    K. Bhaskaran-Nair, J. Brabec, K. Lopata, S. A. Fischer, S. Krishnamoorthy,
     M. Jacquelin, W. Ma, M. Klemm, O. Villa, Y. Chen, V. Anisimov, F. Aquino,
     S. Hirata, M. T. Hackler, E. Hermes, L. Jensen, J. E. Moore, J. C. Becca,
      V. Konjkov, T. Risthaus, M. Malagoli, A. Marenich, A. Otero-de-la-Roza,
        J. Mullin, P. Nichols, R. Peverati, J. Pittner, Y. Zhao, P.-D. Fan,
        A. Fonari, M. J. Williamson, R. J. Harrison, J. R. Rehr, M. Dupuis,
     D. Silverstein, D. M. A. Smith, J. Nieplocha, V. Tipparaju, M. Krishnan,
     B. E. Van Kuiken, A. Vazquez-Mayagoitia, M. Swart, Q. Wu, T. Van Voorhis,
     A. A. Auer, M. Nooijen, L. D. Crosby, E. Brown, G. Cisneros, G. I. Fann,
   H. Fruchtl, J. Garza, K. Hirao, R. A. Kendall, J. A. Nichols, K. Tsemekhman,
    K. Wolinski, J. Anchell, D. E. Bernholdt, P. Borowski, T. Clark, D. Clerc,
   H. Dachsel, M. J. O. Deegan, K. Dyall, D. Elwood, E. Glendening, M. Gutowski,
   A. C. Hess, J. Jaffe, B. G. Johnson, J. Ju, R. Kobayashi, R. Kutteh, Z. Lin,
   R. Littlefield, X. Long, B. Meng, T. Nakajima, S. Niu, L. Pollack, M. Rosing,
   K. Glaesemann, G. Sandrone, M. Stave, H. Taylor, G. Thomas, J. H. van Lenthe,
                               A. T. Wong, Z. Zhang.

 Total times  cpu:        0.2s     wall:        0.2s
