 argument  1 = H2O_two_MP2.nw



============================== echo of input deck ==============================
echo
start molecule
title "H2O"
charge 0
memory total 2 gb
geometry units angstrom
H 0.86681 0.60144 0.00000
H -0.86681 0.60144 0.00000
O 0.00000 -0.07579 0.00000
H 0.86681 0.60144 20.00000
H -0.86681 0.60144 20.00000
O 0.00000 -0.07579 20.00000
end
basis spherical
* library cc-pVDZ
end
task mp2
================================================================================


                                         
                                         


             Northwest Computational Chemistry Package (NWChem) 7.2.2
             --------------------------------------------------------


                    Environmental Molecular Sciences Laboratory
                       Pacific Northwest National Laboratory
                                Richland, WA 99352

                              Copyright (c) 1994-2022
                       Pacific Northwest National Laboratory
                            Battelle Memorial Institute

             NWChem is an open-source computational chemistry package
                        distributed under the terms of the
                      Educational Community License (ECL) 2.0
             A copy of the license is included with this distribution
                              in the LICENSE.TXT file

                                  ACKNOWLEDGMENT
                                  --------------

            This software and its documentation were developed at the
            EMSL at Pacific Northwest National Laboratory, a multiprogram
            national laboratory, operated for the U.S. Department of Energy
            by Battelle under Contract Number DE-AC05-76RL01830. Support
            for this work was provided by the Department of Energy Office
            of Biological and Environmental Research, Office of Basic
            Energy Sciences, and the Office of Advanced Scientific Computing.


           Job information
           ---------------

    hostname        = Eliass-MacBook-Air.local
    program         = nwchem
    date            = Mon Mar 25 13:39:55 2024

    compiled        = Sun_Dec_10_10:51:21_2023
    source          = /private/tmp/nwchem-20231210-5888-3uvdjr/nwchem-7.2.2
    nwchem branch   = 7.2.2
    nwchem revision = 74936fb9
    ga revision     = 5.8.0
    use scalapack   = T
    input           = H2O_two_MP2.nw
    prefix          = molecule.
    data base       = ./molecule.db
    status          = startup
    nproc           =        4
    time left       =     -1s



           Memory information
           ------------------

    heap     =   67108860 doubles =    512.0 Mbytes
    stack    =   67108865 doubles =    512.0 Mbytes
    global   =  134217728 doubles =   1024.0 Mbytes (distinct from heap & stack)
    total    =  268435453 doubles =   2048.0 Mbytes
    verify   = yes
    hardfail = no 


           Directory information
           ---------------------

  0 permanent = .
  0 scratch   = .




                                NWChem Input Module
                                -------------------


                                        H2O
                                        ---

 Scaling coordinates for geometry "geometry" by  1.889725989
 (inverse scale =  0.529177249)

 C2V symmetry detected

          ------
          auto-z
          ------
  autoz: The atoms group into disjoint clusters
 cluster   1:    1    2    3
 cluster   2:    4    5    6
     1 autoz failed with cvr_scaling = 1.2 changing to 1.3
  autoz: The atoms group into disjoint clusters
 cluster   1:    1    2    3
 cluster   2:    4    5    6
     2 autoz failed with cvr_scaling = 1.3 changing to 1.4
  autoz: The atoms group into disjoint clusters
 cluster   1:    1    2    3
 cluster   2:    4    5    6
     3 autoz failed with cvr_scaling = 1.4 changing to 1.5
  autoz: The atoms group into disjoint clusters
 cluster   1:    1    2    3
 cluster   2:    4    5    6
     4 autoz failed with cvr_scaling = 1.5 changing to 1.6
  autoz: The atoms group into disjoint clusters
 cluster   1:    1    2    3
 cluster   2:    4    5    6
     5 autoz failed with cvr_scaling = 1.6 changing to 1.7
  autoz: The atoms group into disjoint clusters
 cluster   1:    1    2    3
 cluster   2:    4    5    6

 AUTOZ failed to generate good internal coordinates.
 Cartesian coordinates will be used in optimizations.



                             Geometry "geometry" -> ""
                             -------------------------

 Output coordinates in angstroms (scale by  1.889725989 to convert to a.u.)

  No.       Tag          Charge          X              Y              Z
 ---- ---------------- ---------- -------------- -------------- --------------
    1 H                    1.0000     0.86681000    10.00000000     0.54178400
    2 H                    1.0000    -0.86681000    10.00000000     0.54178400
    3 O                    8.0000     0.00000000    10.00000000    -0.13544600
    4 H                    1.0000     0.86681000   -10.00000000     0.54178400
    5 H                    1.0000    -0.86681000   -10.00000000     0.54178400
    6 O                    8.0000     0.00000000   -10.00000000    -0.13544600

      Atomic Mass 
      ----------- 

      H                  1.007825
      O                 15.994910


 Effective nuclear repulsion energy (a.u.)      18.6491459462

            Nuclear Dipole moment (a.u.) 
            ----------------------------
        X                 Y               Z
 ---------------- ---------------- ----------------
     0.0000000000     0.0000000000     0.0000000000

      Symmetry information
      --------------------

 Group name             C2v       
 Group number             16
 Group order               4
 No. of unique centers     2

      Symmetry unique atoms

     1    3


            XYZ format geometry
            -------------------
     6
 geometry
 H                     0.86681000    10.00000000     0.54178400
 H                    -0.86681000    10.00000000     0.54178400
 O                     0.00000000    10.00000000    -0.13544600
 H                     0.86681000   -10.00000000     0.54178400
 H                    -0.86681000   -10.00000000     0.54178400
 O                     0.00000000   -10.00000000    -0.13544600

  library name resolved from: .nwchemrc
  library file name is: </opt/homebrew/Cellar/nwchem/7.2.2/share/nwchem/libraries/>
  


 Summary of "ao basis" -> "" (spherical)
 ------------------------------------------------------------------------------
       Tag                 Description            Shells   Functions and Types
 ---------------- ------------------------------  ------  ---------------------
 *                          cc-pVDZ                   on all atoms 


                      Basis "ao basis" -> "ao basis" (spherical)
                      -----
  H (Hydrogen)
  ------------
            Exponent  Coefficients 
       -------------- ---------------------------------------------------------
  1 S  1.30100000E+01  0.019685
  1 S  1.96200000E+00  0.137977
  1 S  4.44600000E-01  0.478148

  2 S  1.22000000E-01  1.000000

  3 P  7.27000000E-01  1.000000

  O (Oxygen)
  ----------
            Exponent  Coefficients 
       -------------- ---------------------------------------------------------
  1 S  1.17200000E+04  0.000710
  1 S  1.75900000E+03  0.005470
  1 S  4.00800000E+02  0.027837
  1 S  1.13700000E+02  0.104800
  1 S  3.70300000E+01  0.283062
  1 S  1.32700000E+01  0.448719
  1 S  5.02500000E+00  0.270952
  1 S  1.01300000E+00  0.015458

  2 S  1.17200000E+04 -0.000160
  2 S  1.75900000E+03 -0.001263
  2 S  4.00800000E+02 -0.006267
  2 S  1.13700000E+02 -0.025716
  2 S  3.70300000E+01 -0.070924
  2 S  1.32700000E+01 -0.165411
  2 S  5.02500000E+00 -0.116955
  2 S  1.01300000E+00  0.557368

  3 S  3.02300000E-01  1.000000

  4 P  1.77000000E+01  0.043018
  4 P  3.85400000E+00  0.228913
  4 P  1.04600000E+00  0.508728

  5 P  2.75300000E-01  1.000000

  6 D  1.18500000E+00  1.000000



 Summary of "ao basis" -> "ao basis" (spherical)
 ------------------------------------------------------------------------------
       Tag                 Description            Shells   Functions and Types
 ---------------- ------------------------------  ------  ---------------------
 H                          cc-pVDZ                  3        5   2s1p
 O                          cc-pVDZ                  6       14   3s2p1d


                                 NWChem SCF Module
                                 -----------------


                                        H2O



  ao basis        = "ao basis"
  functions       =    48
  atoms           =     6
  closed shells   =    10
  open shells     =     0
  charge          =   0.00
  wavefunction    = RHF 
  input vectors   = atomic
  output vectors  = ./molecule.movecs
  use symmetry    = T
  symmetry adapt  = T


 Summary of "ao basis" -> "ao basis" (spherical)
 ------------------------------------------------------------------------------
       Tag                 Description            Shells   Functions and Types
 ---------------- ------------------------------  ------  ---------------------
 H                          cc-pVDZ                  3        5   2s1p
 O                          cc-pVDZ                  6       14   3s2p1d


      Symmetry analysis of basis
      --------------------------

        a1         15
        a2          9
        b1          9
        b2         15


 Forming initial guess at       0.1s


      Superposition of Atomic Density Guess
      -------------------------------------

 Sum of atomic energies:        -151.52445821

      Non-variational initial energy
      ------------------------------

 Total energy =    -151.326551
 1-e energy   =    -244.871428
 2-e energy   =      74.895731
 HOMO         =      -0.431976
 LUMO         =       0.049004


      Symmetry analysis of molecular orbitals - initial
      -------------------------------------------------


 !! scf_movecs_sym_adapt:   48 vectors were symmetry contaminated

  Symmetry fudging

 !! scf_movecs_sym_adapt:   48 vectors were symmetry contaminated

  Numbering of irreducible representations: 

     1 a1          2 a2          3 b1          4 b2      

  Orbital symmetries:

     1 a1          2 b2          3 a1          4 b2          5 a2      
     6 b1          7 a1          8 b2          9 a1         10 b2      
    11 b2         12 a1         13 a2         14 b1         15 a2      
    16 b1         17 a1         18 b2         19 b2         20 a1      


 Starting SCF solution at       0.1s



 ----------------------------------------------
         Quadratically convergent ROHF

 Convergence threshold     :          1.000E-06
 Maximum no. of iterations :           30
 Final Fock-matrix accuracy:          1.000E-08
 ----------------------------------------------


 #quartets = 4.320D+03 #integrals = 4.277D+04 #direct =  0.0% #cached =100.0%


 Integral file          = ./molecule.aoints.0
 Record size in doubles =  65536        No. of integs per rec  =  43688
 Max. records in memory =      4        Max. records in file   = 145993
 No. of bits per label  =      8        No. of bits per value  =     64


File balance: exchanges=     0  moved=     0  time=   0.0


              iter       energy          gnorm     gmax       time
             ----- ------------------- --------- --------- --------
                 1     -151.8968452290  1.20D+00  3.33D-01      0.2
                 2     -151.9728623940  2.89D-01  1.08D-01      0.2
                 3     -151.9790849375  7.33D-02  2.41D-02      0.2
                 4     -151.9795774177  2.29D-03  8.13D-04      0.2
                 5     -151.9795779800  2.13D-06  5.53D-07      0.2
                 6     -151.9795779800  6.75D-08  2.49D-08      0.2


       Final RHF  results 
       ------------------ 

         Total SCF energy =   -151.979577979986
      One-electron energy =   -247.216169184735
      Two-electron energy =     76.587445258513
 Nuclear repulsion energy =     18.649145946236

        Time for solution =      0.1s



       Symmetry analysis of molecular orbitals - final
       -----------------------------------------------

  Numbering of irreducible representations: 

     1 a1          2 a2          3 b1          4 b2      

  Orbital symmetries:

     1 a1          2 b2          3 a1          4 b2          5 b1      
     6 a2          7 a1          8 b2          9 a1         10 b2      
    11 a1         12 b2         13 b1         14 a2         15 a2      
    16 b1         17 b2         18 a1         19 b2         20 a1      

             Final eigenvalues
             -----------------

              1      
    1  -20.5747
    2  -20.5747
    3   -1.2775
    4   -1.2775
    5   -0.6299
    6   -0.6299
    7   -0.5417
    8   -0.5417
    9   -0.4865
   10   -0.4865
   11    0.1576
   12    0.1576
   13    0.2295
   14    0.2295
   15    0.7047
   16    0.7047
   17    0.7446
   18    0.7446
   19    1.1708
   20    1.1708

                       ROHF Final Molecular Orbital Analysis
                       -------------------------------------

 Vector    2  Occ=2.000000D+00  E=-2.057473D+01  Symmetry=b2
              MO Center= -9.4D-22, -7.9D-15, -1.4D-01, r^2= 1.0D+02
   Bfn.  Coefficient  Atom+Function         Bfn.  Coefficient  Atom+Function  
  ----- ------------  ---------------      ----- ------------  ---------------
    11      0.707628  3 O  s                 35     -0.707628  6 O  s          

 Vector    3  Occ=2.000000D+00  E=-1.277539D+00  Symmetry=a1
              MO Center=  4.5D-18,  1.9D-16,  2.6D-04, r^2= 1.0D+02
   Bfn.  Coefficient  Atom+Function         Bfn.  Coefficient  Atom+Function  
  ----- ------------  ---------------      ----- ------------  ---------------
    13      0.325666  3 O  s                 37      0.325666  6 O  s          
    12      0.322929  3 O  s                 36      0.322929  6 O  s          

 Vector    4  Occ=2.000000D+00  E=-1.277539D+00  Symmetry=b2
              MO Center= -2.2D-17,  6.4D-16,  2.6D-04, r^2= 1.0D+02
   Bfn.  Coefficient  Atom+Function         Bfn.  Coefficient  Atom+Function  
  ----- ------------  ---------------      ----- ------------  ---------------
    13      0.325666  3 O  s                 37     -0.325666  6 O  s          
    12      0.322929  3 O  s                 36     -0.322929  6 O  s          

 Vector    5  Occ=2.000000D+00  E=-6.298834D-01  Symmetry=b1
              MO Center=  3.1D-17,  7.6D-17,  1.2D-01, r^2= 1.0D+02
   Bfn.  Coefficient  Atom+Function         Bfn.  Coefficient  Atom+Function  
  ----- ------------  ---------------      ----- ------------  ---------------
    14      0.335445  3 O  px                38      0.335445  6 O  px         
     1      0.211848  1 H  s                  6     -0.211848  2 H  s          
    25      0.211848  4 H  s                 30     -0.211848  5 H  s          
    17      0.185183  3 O  px                41      0.185183  6 O  px         

 Vector    6  Occ=2.000000D+00  E=-6.298834D-01  Symmetry=a2
              MO Center=  6.1D-17,  3.3D-15,  1.2D-01, r^2= 1.0D+02
   Bfn.  Coefficient  Atom+Function         Bfn.  Coefficient  Atom+Function  
  ----- ------------  ---------------      ----- ------------  ---------------
    14      0.335445  3 O  px                38     -0.335445  6 O  px         
     1      0.211848  1 H  s                  6     -0.211848  2 H  s          
    25     -0.211848  4 H  s                 30      0.211848  5 H  s          
    17      0.185183  3 O  px                41     -0.185183  6 O  px         

 Vector    7  Occ=2.000000D+00  E=-5.416535D-01  Symmetry=a1
              MO Center=  4.1D-18, -2.7D-15, -9.8D-02, r^2= 1.0D+02
   Bfn.  Coefficient  Atom+Function         Bfn.  Coefficient  Atom+Function  
  ----- ------------  ---------------      ----- ------------  ---------------
    16      0.374940  3 O  pz                40      0.374940  6 O  pz         
    19      0.267120  3 O  pz                43      0.267120  6 O  pz         
    13     -0.211758  3 O  s                 37     -0.211758  6 O  s          

 Vector    8  Occ=2.000000D+00  E=-5.416535D-01  Symmetry=b2
              MO Center=  2.7D-18, -2.1D-15, -9.8D-02, r^2= 1.0D+02
   Bfn.  Coefficient  Atom+Function         Bfn.  Coefficient  Atom+Function  
  ----- ------------  ---------------      ----- ------------  ---------------
    16      0.374940  3 O  pz                40     -0.374940  6 O  pz         
    19      0.267120  3 O  pz                43     -0.267120  6 O  pz         
    13     -0.211758  3 O  s                 37      0.211758  6 O  s          

 Vector    9  Occ=2.000000D+00  E=-4.865167D-01  Symmetry=a1
              MO Center=  1.9D-19,  8.5D-16, -1.2D-01, r^2= 1.0D+02
   Bfn.  Coefficient  Atom+Function         Bfn.  Coefficient  Atom+Function  
  ----- ------------  ---------------      ----- ------------  ---------------
    15      0.450665  3 O  py                39     -0.450665  6 O  py         
    18      0.352917  3 O  py                42     -0.352917  6 O  py         

 Vector   10  Occ=2.000000D+00  E=-4.865167D-01  Symmetry=b2
              MO Center= -7.6D-19, -1.7D-15, -1.2D-01, r^2= 1.0D+02
   Bfn.  Coefficient  Atom+Function         Bfn.  Coefficient  Atom+Function  
  ----- ------------  ---------------      ----- ------------  ---------------
    15      0.450665  3 O  py                39      0.450665  6 O  py         
    18      0.352917  3 O  py                42      0.352917  6 O  py         

 Vector   11  Occ=0.000000D+00  E= 1.576378D-01  Symmetry=a1
              MO Center=  5.7D-17,  7.9D-16,  6.0D-01, r^2= 1.0D+02
   Bfn.  Coefficient  Atom+Function         Bfn.  Coefficient  Atom+Function  
  ----- ------------  ---------------      ----- ------------  ---------------
    13      0.597190  3 O  s                 37      0.597190  6 O  s          
     2     -0.534831  1 H  s                  7     -0.534831  2 H  s          
    26     -0.534831  4 H  s                 31     -0.534831  5 H  s          
    19      0.273396  3 O  pz                43      0.273396  6 O  pz         
    16      0.173572  3 O  pz                40      0.173572  6 O  pz         

 Vector   12  Occ=0.000000D+00  E= 1.576378D-01  Symmetry=b2
              MO Center=  3.3D-17,  8.0D-16,  6.0D-01, r^2= 1.0D+02
   Bfn.  Coefficient  Atom+Function         Bfn.  Coefficient  Atom+Function  
  ----- ------------  ---------------      ----- ------------  ---------------
    13      0.597190  3 O  s                 37     -0.597190  6 O  s          
     2     -0.534831  1 H  s                  7     -0.534831  2 H  s          
    26      0.534831  4 H  s                 31      0.534831  5 H  s          
    19      0.273396  3 O  pz                43     -0.273396  6 O  pz         
    16      0.173572  3 O  pz                40     -0.173572  6 O  pz         

 Vector   13  Occ=0.000000D+00  E= 2.295280D-01  Symmetry=b1
              MO Center= -2.4D-16, -2.3D-16,  6.2D-01, r^2= 1.0D+02
   Bfn.  Coefficient  Atom+Function         Bfn.  Coefficient  Atom+Function  
  ----- ------------  ---------------      ----- ------------  ---------------
     2      0.836545  1 H  s                  7     -0.836545  2 H  s          
    26      0.836545  4 H  s                 31     -0.836545  5 H  s          
    17     -0.463200  3 O  px                41     -0.463200  6 O  px         
    14     -0.232283  3 O  px                38     -0.232283  6 O  px         

 Vector   14  Occ=0.000000D+00  E= 2.295280D-01  Symmetry=a2
              MO Center=  1.4D-16, -5.6D-15,  6.2D-01, r^2= 1.0D+02
   Bfn.  Coefficient  Atom+Function         Bfn.  Coefficient  Atom+Function  
  ----- ------------  ---------------      ----- ------------  ---------------
     2      0.836545  1 H  s                  7     -0.836545  2 H  s          
    26     -0.836545  4 H  s                 31      0.836545  5 H  s          
    17     -0.463200  3 O  px                41      0.463200  6 O  px         
    14     -0.232283  3 O  px                38      0.232283  6 O  px         

 Vector   15  Occ=0.000000D+00  E= 7.047017D-01  Symmetry=a2
              MO Center= -4.3D-16,  1.3D-15,  3.7D-01, r^2= 1.0D+02
   Bfn.  Coefficient  Atom+Function         Bfn.  Coefficient  Atom+Function  
  ----- ------------  ---------------      ----- ------------  ---------------
     1      0.658848  1 H  s                  6     -0.658848  2 H  s          
    25     -0.658848  4 H  s                 30      0.658848  5 H  s          
     2     -0.615337  1 H  s                  7      0.615337  2 H  s          
    26      0.615337  4 H  s                 31     -0.615337  5 H  s          
    14     -0.199383  3 O  px                38      0.199383  6 O  px         

 Vector   16  Occ=0.000000D+00  E= 7.047017D-01  Symmetry=b1
              MO Center= -1.6D-16,  1.0D-15,  3.7D-01, r^2= 1.0D+02
   Bfn.  Coefficient  Atom+Function         Bfn.  Coefficient  Atom+Function  
  ----- ------------  ---------------      ----- ------------  ---------------
     1      0.658848  1 H  s                  6     -0.658848  2 H  s          
    25      0.658848  4 H  s                 30     -0.658848  5 H  s          
     2     -0.615337  1 H  s                  7      0.615337  2 H  s          
    26     -0.615337  4 H  s                 31      0.615337  5 H  s          
    14     -0.199383  3 O  px                38     -0.199383  6 O  px         

 Vector   17  Occ=0.000000D+00  E= 7.445825D-01  Symmetry=b2
              MO Center=  2.1D-16, -1.7D-15,  5.7D-01, r^2= 1.0D+02
   Bfn.  Coefficient  Atom+Function         Bfn.  Coefficient  Atom+Function  
  ----- ------------  ---------------      ----- ------------  ---------------
     1      0.616808  1 H  s                  6      0.616808  2 H  s          
    25     -0.616808  4 H  s                 30     -0.616808  5 H  s          
     2     -0.455454  1 H  s                  7     -0.455454  2 H  s          
    26      0.455454  4 H  s                 31      0.455454  5 H  s          
    13      0.247749  3 O  s                 37     -0.247749  6 O  s          

 Vector   18  Occ=0.000000D+00  E= 7.445825D-01  Symmetry=a1
              MO Center=  3.0D-17,  3.9D-16,  5.7D-01, r^2= 1.0D+02
   Bfn.  Coefficient  Atom+Function         Bfn.  Coefficient  Atom+Function  
  ----- ------------  ---------------      ----- ------------  ---------------
     1      0.616808  1 H  s                  6      0.616808  2 H  s          
    25      0.616808  4 H  s                 30      0.616808  5 H  s          
     2     -0.455454  1 H  s                  7     -0.455454  2 H  s          
    26     -0.455454  4 H  s                 31     -0.455454  5 H  s          
    13      0.247749  3 O  s                 37      0.247749  6 O  s          

 Vector   19  Occ=0.000000D+00  E= 1.170842D+00  Symmetry=b2
              MO Center=  2.6D-17, -7.7D-16, -8.5D-02, r^2= 1.0D+02
   Bfn.  Coefficient  Atom+Function         Bfn.  Coefficient  Atom+Function  
  ----- ------------  ---------------      ----- ------------  ---------------
    19      0.759728  3 O  pz                43     -0.759728  6 O  pz         
    16     -0.548234  3 O  pz                40      0.548234  6 O  pz         
    13      0.266319  3 O  s                 37     -0.266319  6 O  s          
     1     -0.237019  1 H  s                  6     -0.237019  2 H  s          
    25      0.237019  4 H  s                 30      0.237019  5 H  s          

 Vector   20  Occ=0.000000D+00  E= 1.170842D+00  Symmetry=a1
              MO Center= -1.7D-17, -1.9D-15, -8.5D-02, r^2= 1.0D+02
   Bfn.  Coefficient  Atom+Function         Bfn.  Coefficient  Atom+Function  
  ----- ------------  ---------------      ----- ------------  ---------------
    19      0.759728  3 O  pz                43      0.759728  6 O  pz         
    16     -0.548234  3 O  pz                40     -0.548234  6 O  pz         
    13      0.266319  3 O  s                 37      0.266319  6 O  s          
     1     -0.237019  1 H  s                  6     -0.237019  2 H  s          
    25     -0.237019  4 H  s                 30     -0.237019  5 H  s          


 center of mass
 --------------
 x =   0.00000000 y =  -0.00000000 z =  -0.11272947

 moments of inertia (a.u.)
 ------------------
       12869.237283826755           0.000000000000           0.000000000000
           0.000000000000          16.680269278115           0.000000000000
           0.000000000000           0.000000000000       12874.190206890460

  Mulliken analysis of the total density
  --------------------------------------

    Atom       Charge   Shell Charges
 -----------   ------   -------------------------------------------------------
    1 H    1     0.78   0.60  0.12  0.06
    2 H    1     0.78   0.60  0.12  0.06
    3 O    8     8.44   2.00  0.85  0.94  2.71  1.93  0.01
    4 H    1     0.78   0.60  0.12  0.06
    5 H    1     0.78   0.60  0.12  0.06
    6 O    8     8.44   2.00  0.85  0.94  2.71  1.93  0.01

       Multipole analysis of the density wrt the origin
       ------------------------------------------------

     L   x y z        total         open         nuclear
     -   - - -        -----         ----         -------
     0   0 0 0     -0.000000      0.000000     20.000000

     1   1 0 0      0.000000      0.000000      0.000000
     1   0 1 0     -0.000000      0.000000      0.000000
     1   0 0 1      1.712497      0.000000      0.000000

     2   2 0 0     -5.709476      0.000000     10.732613
     2   1 1 0     -0.000000      0.000000      0.000000
     2   1 0 1     -0.000000      0.000000      0.000000
     2   0 2 0    -10.930610      0.000000   7142.128624
     2   0 1 1     -0.000000      0.000000      0.000000
     2   0 0 2     -8.775214      0.000000      5.241071


 Parallel integral file used       4 records with       0 large values

                   NWChem MP2 Semi-direct Energy/Gradient Module
                   ---------------------------------------------


                                        H2O


  Basis functions       =     48
  Molecular orbitals    =     48
  Frozen core           =      0
  Frozen virtuals       =      0
  Active alpha occupied =     10
  Active beta occupied  =     10
  Active alpha virtual  =     38
  Active beta virtual   =     38
  Use MO symmetry       = T
  Use skeleton AO sym   = T

  AO/Fock/Back tols     =   1.0D-09  1.0D-09  1.0D-09
  avail0,avail1,avail0-avail1                307341               307341                    0
  avail0,avail1,avail0-avail1                307341               307341                    0
  avail0,avail1,avail0-avail1                307341               307357                  -16
  avail0,avail1,avail0-avail1                307341               307357                  -16

 GA uses MA = F    GA memory limited = T

 Available: 
  local mem=  1.34D+08
 global mem=  1.34D+08
 local disk=  6.29D+08
  mp2_memr nvloc                    10
  nvloc new                    10
   1 passes of  10:         406001                      10865                    208005.

 Semi-direct pass number   1 of   1  for RHF alpha+beta  at        0.2s
  vrange nnbf                   600
Node 0 wrote      0.5 Mb in      0.0 s     Agg I/O rate:   492.1 Mb/s
 Done moints_semi at        0.3s
 Done maket at        0.3s
 Done multipass loop at        0.3s


          -------------------------------------------
          SCF energy                -151.979577979986
          Correlation energy          -0.428697247096
          Singlet pairs               -0.269497214034
          Triplet pairs               -0.159200033063
          Total MP2 energy          -152.408275227083
          -------------------------------------------



          ---------------------------------------------------
                    Spin Component Scaled (SCS) MP2
          Same spin pairs                     -0.106133355375
          Same spin scaling factor             0.333333333333
          Opposite spin pairs                 -0.322563891721
          Opposite spin scaling fact.          1.200000000000
          SCS-MP2 correlation energy          -0.422454455190
          Total SCS-MP2 energy              -152.402032435177
          ---------------------------------------------------

 -----------------------
 Performance information
 -----------------------

 Timer overhead =  1.06D-07 seconds/call

               Nr. of calls         CPU time (s)                 Wall time (s)                GFlops
             ---------------    -------------------     ------------------------------   -------------------
Name         Min   Avg   Max    Min     Avg     Max     Min     Avg     Max   Mx/calls   Min     Max     Sum
mp2: moin     1     1     1   5.10E-2 5.11E-2 5.11E-2  5.10E-2 5.11E-2 5.11E-2 5.11E-2   0.0     0.0     0.0   
mp2: make     1     1     1   6.43E-3 6.48E-3 6.50E-3  6.43E-3 6.48E-3 6.50E-3 6.50E-3   0.0     0.0     0.0   
mp2: tota     1     1     1   7.79E-2 7.79E-2 7.79E-2  7.79E-2 7.79E-2 7.79E-2 7.79E-2   0.0     0.0     0.0   

 The average no. of pstat calls per process was 3.00D+00
 with a timing overhead of 3.19D-07s


 Task  times  cpu:        0.3s     wall:        0.3s


                                NWChem Input Module
                                -------------------


 Summary of allocated global arrays
-----------------------------------
  No active global arrays


MA_summarize_allocated_blocks: starting scan ...
MA_summarize_allocated_blocks: scan completed: 0 heap blocks, 0 stack blocks
MA usage statistics:

	allocation statistics:
					      heap	     stack
					      ----	     -----
	current number of blocks	         0	         0
	maximum number of blocks	        18	        22
	current total bytes		         0	         0
	maximum total bytes		   2123088	  22510248
	maximum total K-bytes		      2124	     22511
	maximum total M-bytes		         3	        23


                                     CITATION
                                     --------
                Please cite the following reference when publishing
                           results obtained with NWChem:

          E. Apra, E. J. Bylaska, W. A. de Jong, N. Govind, K. Kowalski,
       T. P. Straatsma, M. Valiev, H. J. J. van Dam, Y. Alexeev, J. Anchell,
       V. Anisimov, F. W. Aquino, R. Atta-Fynn, J. Autschbach, N. P. Bauman,
     J. C. Becca, D. E. Bernholdt, K. Bhaskaran-Nair, S. Bogatko, P. Borowski,
         J. Boschen, J. Brabec, A. Bruner, E. Cauet, Y. Chen, G. N. Chuev,
      C. J. Cramer, J. Daily, M. J. O. Deegan, T. H. Dunning Jr., M. Dupuis,
   K. G. Dyall, G. I. Fann, S. A. Fischer, A. Fonari, H. Fruchtl, L. Gagliardi,
      J. Garza, N. Gawande, S. Ghosh, K. Glaesemann, A. W. Gotz, J. Hammond,
       V. Helms, E. D. Hermes, K. Hirao, S. Hirata, M. Jacquelin, L. Jensen,
   B. G. Johnson, H. Jonsson, R. A. Kendall, M. Klemm, R. Kobayashi, V. Konkov,
      S. Krishnamoorthy, M. Krishnan, Z. Lin, R. D. Lins, R. J. Littlefield,
      A. J. Logsdail, K. Lopata, W. Ma, A. V. Marenich, J. Martin del Campo,
   D. Mejia-Rodriguez, J. E. Moore, J. M. Mullin, T. Nakajima, D. R. Nascimento,
    J. A. Nichols, P. J. Nichols, J. Nieplocha, A. Otero-de-la-Roza, B. Palmer,
    A. Panyala, T. Pirojsirikul, B. Peng, R. Peverati, J. Pittner, L. Pollack,
   R. M. Richard, P. Sadayappan, G. C. Schatz, W. A. Shelton, D. W. Silverstein,
   D. M. A. Smith, T. A. Soares, D. Song, M. Swart, H. L. Taylor, G. S. Thomas,
            V. Tipparaju, D. G. Truhlar, K. Tsemekhman, T. Van Voorhis,
      A. Vazquez-Mayagoitia, P. Verma, O. Villa, A. Vishnu, K. D. Vogiatzis,
        D. Wang, J. H. Weare, M. J. Williamson, T. L. Windus, K. Wolinski,
        A. T. Wong, Q. Wu, C. Yang, Q. Yu, M. Zacharias, Z. Zhang, Y. Zhao,
                                and R. J. Harrison
                        "NWChem: Past, present, and future
                         J. Chem. Phys. 152, 184102 (2020)
                               doi:10.1063/5.0004997

                                      AUTHORS
                                      -------
  E. Apra, E. J. Bylaska, N. Govind, K. Kowalski, M. Valiev, D. Mejia-Rodriguez,
       A. Kunitsa, N. P. Bauman, A. Panyala, W. A. de Jong, T. P. Straatsma,
   H. J. J. van Dam, D. Wang, T. L. Windus, J. Hammond, J. Autschbach, A. Woods,
    K. Bhaskaran-Nair, J. Brabec, K. Lopata, S. A. Fischer, S. Krishnamoorthy,
     M. Jacquelin, W. Ma, M. Klemm, O. Villa, Y. Chen, V. Anisimov, F. Aquino,
     S. Hirata, M. T. Hackler, E. Hermes, L. Jensen, J. E. Moore, J. C. Becca,
      V. Konjkov, T. Risthaus, M. Malagoli, A. Marenich, A. Otero-de-la-Roza,
        J. Mullin, P. Nichols, R. Peverati, J. Pittner, Y. Zhao, P.-D. Fan,
        A. Fonari, M. J. Williamson, R. J. Harrison, J. R. Rehr, M. Dupuis,
     D. Silverstein, D. M. A. Smith, J. Nieplocha, V. Tipparaju, M. Krishnan,
     B. E. Van Kuiken, A. Vazquez-Mayagoitia, M. Swart, Q. Wu, T. Van Voorhis,
     A. A. Auer, M. Nooijen, L. D. Crosby, E. Brown, G. Cisneros, G. I. Fann,
   H. Fruchtl, J. Garza, K. Hirao, R. A. Kendall, J. A. Nichols, K. Tsemekhman,
    K. Wolinski, J. Anchell, D. E. Bernholdt, P. Borowski, T. Clark, D. Clerc,
   H. Dachsel, M. J. O. Deegan, K. Dyall, D. Elwood, E. Glendening, M. Gutowski,
   A. C. Hess, J. Jaffe, B. G. Johnson, J. Ju, R. Kobayashi, R. Kutteh, Z. Lin,
   R. Littlefield, X. Long, B. Meng, T. Nakajima, S. Niu, L. Pollack, M. Rosing,
   K. Glaesemann, G. Sandrone, M. Stave, H. Taylor, G. Thomas, J. H. van Lenthe,
                               A. T. Wong, Z. Zhang.

 Total times  cpu:        0.3s     wall:        0.3s
