 argument  1 = H2O_three_CCSD.nw



============================== echo of input deck ==============================
echo
start molecule
title "H2O"
charge 0
memory total 2 gb
geometry units angstrom
H 0.86681 0.60144 0.00000
H -0.86681 0.60144 0.00000
O 0.00000 -0.07579 0.00000
H 0.86681 0.60144 50.00000
H -0.86681 0.60144 50.00000
O 0.00000 -0.07579 50.00000
H 0.86681 0.60144 -50.00000
H -0.86681 0.60144 -50.00000
O 0.00000 -0.07579 -50.00000
end
basis spherical
* library cc-pVDZ
end
tce
 ccsd
end

task tce energy
================================================================================


                                         
                                         


             Northwest Computational Chemistry Package (NWChem) 7.2.2
             --------------------------------------------------------


                    Environmental Molecular Sciences Laboratory
                       Pacific Northwest National Laboratory
                                Richland, WA 99352

                              Copyright (c) 1994-2022
                       Pacific Northwest National Laboratory
                            Battelle Memorial Institute

             NWChem is an open-source computational chemistry package
                        distributed under the terms of the
                      Educational Community License (ECL) 2.0
             A copy of the license is included with this distribution
                              in the LICENSE.TXT file

                                  ACKNOWLEDGMENT
                                  --------------

            This software and its documentation were developed at the
            EMSL at Pacific Northwest National Laboratory, a multiprogram
            national laboratory, operated for the U.S. Department of Energy
            by Battelle under Contract Number DE-AC05-76RL01830. Support
            for this work was provided by the Department of Energy Office
            of Biological and Environmental Research, Office of Basic
            Energy Sciences, and the Office of Advanced Scientific Computing.


           Job information
           ---------------

    hostname        = dhcp-10-22-10-228.wlan.ntnu.no
    program         = nwchem
    date            = Fri Mar 29 14:42:23 2024

    compiled        = Sun_Dec_10_10:51:21_2023
    source          = /private/tmp/nwchem-20231210-5888-3uvdjr/nwchem-7.2.2
    nwchem branch   = 7.2.2
    nwchem revision = 74936fb9
    ga revision     = 5.8.0
    use scalapack   = T
    input           = H2O_three_CCSD.nw
    prefix          = molecule.
    data base       = ./molecule.db
    status          = startup
    nproc           =        4
    time left       =     -1s



           Memory information
           ------------------

    heap     =   67108860 doubles =    512.0 Mbytes
    stack    =   67108865 doubles =    512.0 Mbytes
    global   =  134217728 doubles =   1024.0 Mbytes (distinct from heap & stack)
    total    =  268435453 doubles =   2048.0 Mbytes
    verify   = yes
    hardfail = no 


           Directory information
           ---------------------

  0 permanent = .
  0 scratch   = .




                                NWChem Input Module
                                -------------------


                                        H2O
                                        ---

 Scaling coordinates for geometry "geometry" by  1.889725989
 (inverse scale =  0.529177249)

 C2V symmetry detected

          ------
          auto-z
          ------
  autoz: The atoms group into disjoint clusters
 cluster   1:    1    2    3
 cluster   2:    4    5    6
 cluster   3:    7    8    9
     1 autoz failed with cvr_scaling = 1.2 changing to 1.3
  autoz: The atoms group into disjoint clusters
 cluster   1:    1    2    3
 cluster   2:    4    5    6
 cluster   3:    7    8    9
     2 autoz failed with cvr_scaling = 1.3 changing to 1.4
  autoz: The atoms group into disjoint clusters
 cluster   1:    1    2    3
 cluster   2:    4    5    6
 cluster   3:    7    8    9
     3 autoz failed with cvr_scaling = 1.4 changing to 1.5
  autoz: The atoms group into disjoint clusters
 cluster   1:    1    2    3
 cluster   2:    4    5    6
 cluster   3:    7    8    9
     4 autoz failed with cvr_scaling = 1.5 changing to 1.6
  autoz: The atoms group into disjoint clusters
 cluster   1:    1    2    3
 cluster   2:    4    5    6
 cluster   3:    7    8    9
     5 autoz failed with cvr_scaling = 1.6 changing to 1.7
  autoz: The atoms group into disjoint clusters
 cluster   1:    1    2    3
 cluster   2:    4    5    6
 cluster   3:    7    8    9

 AUTOZ failed to generate good internal coordinates.
 Cartesian coordinates will be used in optimizations.



                             Geometry "geometry" -> ""
                             -------------------------

 Output coordinates in angstroms (scale by  1.889725989 to convert to a.u.)

  No.       Tag          Charge          X              Y              Z
 ---- ---------------- ---------- -------------- -------------- --------------
    1 H                    1.0000     0.86681000     0.00000000     0.54178400
    2 H                    1.0000    -0.86681000     0.00000000     0.54178400
    3 O                    8.0000     0.00000000     0.00000000    -0.13544600
    4 H                    1.0000     0.86681000   -50.00000000     0.54178400
    5 H                    1.0000    -0.86681000   -50.00000000     0.54178400
    6 O                    8.0000     0.00000000   -50.00000000    -0.13544600
    7 H                    1.0000     0.86681000    50.00000000     0.54178400
    8 H                    1.0000    -0.86681000    50.00000000     0.54178400
    9 O                    8.0000     0.00000000    50.00000000    -0.13544600

      Atomic Mass 
      ----------- 

      H                  1.007825
      O                 15.994910


 Effective nuclear repulsion energy (a.u.)      26.6527877790

            Nuclear Dipole moment (a.u.) 
            ----------------------------
        X                 Y               Z
 ---------------- ---------------- ----------------
     0.0000000000     0.0000000000     0.0000000000

      Symmetry information
      --------------------

 Group name             C2v       
 Group number             16
 Group order               4
 No. of unique centers     4

      Symmetry unique atoms

     1    3    4    6


            XYZ format geometry
            -------------------
     9
 geometry
 H                     0.86681000     0.00000000     0.54178400
 H                    -0.86681000     0.00000000     0.54178400
 O                     0.00000000     0.00000000    -0.13544600
 H                     0.86681000   -50.00000000     0.54178400
 H                    -0.86681000   -50.00000000     0.54178400
 O                     0.00000000   -50.00000000    -0.13544600
 H                     0.86681000    50.00000000     0.54178400
 H                    -0.86681000    50.00000000     0.54178400
 O                     0.00000000    50.00000000    -0.13544600

  library name resolved from: .nwchemrc
  library file name is: </opt/homebrew/Cellar/nwchem/7.2.2/share/nwchem/libraries/>
  


 Summary of "ao basis" -> "" (spherical)
 ------------------------------------------------------------------------------
       Tag                 Description            Shells   Functions and Types
 ---------------- ------------------------------  ------  ---------------------
 *                          cc-pVDZ                   on all atoms 


                      Basis "ao basis" -> "ao basis" (spherical)
                      -----
  H (Hydrogen)
  ------------
            Exponent  Coefficients 
       -------------- ---------------------------------------------------------
  1 S  1.30100000E+01  0.019685
  1 S  1.96200000E+00  0.137977
  1 S  4.44600000E-01  0.478148

  2 S  1.22000000E-01  1.000000

  3 P  7.27000000E-01  1.000000

  O (Oxygen)
  ----------
            Exponent  Coefficients 
       -------------- ---------------------------------------------------------
  1 S  1.17200000E+04  0.000710
  1 S  1.75900000E+03  0.005470
  1 S  4.00800000E+02  0.027837
  1 S  1.13700000E+02  0.104800
  1 S  3.70300000E+01  0.283062
  1 S  1.32700000E+01  0.448719
  1 S  5.02500000E+00  0.270952
  1 S  1.01300000E+00  0.015458

  2 S  1.17200000E+04 -0.000160
  2 S  1.75900000E+03 -0.001263
  2 S  4.00800000E+02 -0.006267
  2 S  1.13700000E+02 -0.025716
  2 S  3.70300000E+01 -0.070924
  2 S  1.32700000E+01 -0.165411
  2 S  5.02500000E+00 -0.116955
  2 S  1.01300000E+00  0.557368

  3 S  3.02300000E-01  1.000000

  4 P  1.77000000E+01  0.043018
  4 P  3.85400000E+00  0.228913
  4 P  1.04600000E+00  0.508728

  5 P  2.75300000E-01  1.000000

  6 D  1.18500000E+00  1.000000



 Summary of "ao basis" -> "ao basis" (spherical)
 ------------------------------------------------------------------------------
       Tag                 Description            Shells   Functions and Types
 ---------------- ------------------------------  ------  ---------------------
 H                          cc-pVDZ                  3        5   2s1p
 O                          cc-pVDZ                  6       14   3s2p1d


                                 NWChem SCF Module
                                 -----------------


                                        H2O



  ao basis        = "ao basis"
  functions       =    72
  atoms           =     9
  closed shells   =    15
  open shells     =     0
  charge          =   0.00
  wavefunction    = RHF 
  input vectors   = atomic
  output vectors  = ./molecule.movecs
  use symmetry    = T
  symmetry adapt  = T


 Summary of "ao basis" -> "ao basis" (spherical)
 ------------------------------------------------------------------------------
       Tag                 Description            Shells   Functions and Types
 ---------------- ------------------------------  ------  ---------------------
 H                          cc-pVDZ                  3        5   2s1p
 O                          cc-pVDZ                  6       14   3s2p1d


      Symmetry analysis of basis
      --------------------------

        a1         26
        a2         11
        b1         16
        b2         19


 Forming initial guess at       0.0s


      Superposition of Atomic Density Guess
      -------------------------------------

 Sum of atomic energies:        -227.28668731

      Non-variational initial energy
      ------------------------------

 Total energy =    -226.989826
 1-e energy   =    -364.665279
 2-e energy   =     111.022666
 HOMO         =      -0.431976
 LUMO         =       0.049004


      Symmetry analysis of molecular orbitals - initial
      -------------------------------------------------


 !! scf_movecs_sym_adapt:   54 vectors were symmetry contaminated

  Symmetry fudging

 !! scf_movecs_sym_adapt:   50 vectors were symmetry contaminated

  Numbering of irreducible representations: 

     1 a1          2 a2          3 b1          4 b2      

  Orbital symmetries:

     1 a1          2 b2          3 a1          4 a1          5 a1      
     6 b2          7 b1          8 a2          9 b1         10 a1      
    11 b2         12 a1         13 a1         14 b2         15 b2      
    16 a1         17 a1         18 b2         19 b1         20 a2      
    21 b1         22 a2         23 b1         24 b1         25 a1      


 Starting SCF solution at       0.0s



 ----------------------------------------------
         Quadratically convergent ROHF

 Convergence threshold     :          1.000E-04
 Maximum no. of iterations :           30
 Final Fock-matrix accuracy:          1.000E-07
 ----------------------------------------------


 #quartets = 9.765D+03 #integrals = 8.360D+04 #direct =  0.0% #cached =100.0%


 Integral file          = ./molecule.aoints.0
 Record size in doubles =  65536        No. of integs per rec  =  43688
 Max. records in memory =     11        Max. records in file   = 146886
 No. of bits per label  =      8        No. of bits per value  =     64


File balance: exchanges=     0  moved=     0  time=   0.0


              iter       energy          gnorm     gmax       time
             ----- ------------------- --------- --------- --------
                 1     -227.8453117117  1.47D+00  3.33D-01      0.1
                 2     -227.9593140797  3.54D-01  1.08D-01      0.1
                 3     -227.9686463320  8.97D-02  2.41D-02      0.1
                 4     -227.9693849257  2.80D-03  8.11D-04      0.1
                 5     -227.9693857673  2.59D-06  5.47D-07      0.1


       Final RHF  results 
       ------------------ 

         Total SCF energy =   -227.969385767251
      One-electron energy =   -368.181665375566
      Two-electron energy =    113.559491829362
 Nuclear repulsion energy =     26.652787778954

        Time for solution =      0.1s



       Symmetry analysis of molecular orbitals - final
       -----------------------------------------------

  Numbering of irreducible representations: 

     1 a1          2 a2          3 b1          4 b2      

  Orbital symmetries:

     1 b2          2 a1          3 a1          4 b2          5 a1      
     6 a1          7 a2          8 b1          9 b1         10 b2      
    11 a1         12 a1         13 a1         14 b2         15 b2      
    16 b2         17 a1         18 a1         19 b1         20 a2      
    21 b1         22 a2         23 b1         24 b1         25 a1      

             Final eigenvalues
             -----------------

              1      
    1  -20.5748
    2  -20.5748
    3  -20.5747
    4   -1.2776
    5   -1.2776
    6   -1.2776
    7   -0.6299
    8   -0.6299
    9   -0.6299
   10   -0.5417
   11   -0.5417
   12   -0.5417
   13   -0.4865
   14   -0.4865
   15   -0.4865
   16    0.1576
   17    0.1576
   18    0.1576
   19    0.2295
   20    0.2295
   21    0.2295
   22    0.7047
   23    0.7047
   24    0.7047
   25    0.7446

                       ROHF Final Molecular Orbital Analysis
                       -------------------------------------

 Vector    4  Occ=2.000000D+00  E=-1.277564D+00  Symmetry=b2
              MO Center=  2.4D-18,  1.6D-15,  2.6D-04, r^2= 2.5D+03
   Bfn.  Coefficient  Atom+Function         Bfn.  Coefficient  Atom+Function  
  ----- ------------  ---------------      ----- ------------  ---------------
    37      0.325669  6 O  s                 61     -0.325669  9 O  s          
    36      0.322928  6 O  s                 60     -0.322928  9 O  s          

 Vector    5  Occ=2.000000D+00  E=-1.277564D+00  Symmetry=a1
              MO Center= -1.8D-18,  4.3D-15,  2.6D-04, r^2= 2.5D+03
   Bfn.  Coefficient  Atom+Function         Bfn.  Coefficient  Atom+Function  
  ----- ------------  ---------------      ----- ------------  ---------------
    37      0.325669  6 O  s                 61      0.325669  9 O  s          
    36      0.322928  6 O  s                 60      0.322928  9 O  s          

 Vector    6  Occ=2.000000D+00  E=-1.277562D+00  Symmetry=a1
              MO Center=  1.8D-17, -1.3D-18,  2.6D-04, r^2= 5.2D-01
   Bfn.  Coefficient  Atom+Function         Bfn.  Coefficient  Atom+Function  
  ----- ------------  ---------------      ----- ------------  ---------------
    13      0.460565  3 O  s                 12      0.456690  3 O  s          

 Vector    7  Occ=2.000000D+00  E=-6.299090D-01  Symmetry=a2
              MO Center=  5.0D-17, -8.9D-15,  1.2D-01, r^2= 2.5D+03
   Bfn.  Coefficient  Atom+Function         Bfn.  Coefficient  Atom+Function  
  ----- ------------  ---------------      ----- ------------  ---------------
    38      0.335446  6 O  px                62     -0.335446  9 O  px         
    25      0.211843  4 H  s                 30     -0.211843  5 H  s          
    49     -0.211843  7 H  s                 54      0.211843  8 H  s          
    41      0.185191  6 O  px                65     -0.185191  9 O  px         

 Vector    8  Occ=2.000000D+00  E=-6.299090D-01  Symmetry=b1
              MO Center= -7.4D-20,  3.7D-15,  1.2D-01, r^2= 2.5D+03
   Bfn.  Coefficient  Atom+Function         Bfn.  Coefficient  Atom+Function  
  ----- ------------  ---------------      ----- ------------  ---------------
    38      0.335446  6 O  px                62      0.335446  9 O  px         
    25      0.211843  4 H  s                 30     -0.211843  5 H  s          
    49      0.211843  7 H  s                 54     -0.211843  8 H  s          
    41      0.185191  6 O  px                65      0.185191  9 O  px         

 Vector    9  Occ=2.000000D+00  E=-6.299074D-01  Symmetry=b1
              MO Center=  2.6D-17,  2.2D-18,  1.2D-01, r^2= 9.1D-01
   Bfn.  Coefficient  Atom+Function         Bfn.  Coefficient  Atom+Function  
  ----- ------------  ---------------      ----- ------------  ---------------
    14      0.474393  3 O  px                 1      0.299592  1 H  s          
     6     -0.299592  2 H  s                 17      0.261899  3 O  px         

 Vector   10  Occ=2.000000D+00  E=-5.416827D-01  Symmetry=b2
              MO Center= -1.4D-17, -1.5D-14, -9.8D-02, r^2= 2.5D+03
   Bfn.  Coefficient  Atom+Function         Bfn.  Coefficient  Atom+Function  
  ----- ------------  ---------------      ----- ------------  ---------------
    40      0.374943  6 O  pz                64     -0.374943  9 O  pz         
    43      0.267128  6 O  pz                67     -0.267128  9 O  pz         
    37     -0.211748  6 O  s                 61      0.211748  9 O  s          

 Vector   11  Occ=2.000000D+00  E=-5.416827D-01  Symmetry=a1
              MO Center= -7.9D-18,  2.6D-14, -9.8D-02, r^2= 2.5D+03
   Bfn.  Coefficient  Atom+Function         Bfn.  Coefficient  Atom+Function  
  ----- ------------  ---------------      ----- ------------  ---------------
    40      0.374943  6 O  pz                64      0.374943  9 O  pz         
    43      0.267128  6 O  pz                67      0.267128  9 O  pz         
    37     -0.211748  6 O  s                 61     -0.211748  9 O  s          

 Vector   12  Occ=2.000000D+00  E=-5.416809D-01  Symmetry=a1
              MO Center=  3.1D-18, -1.3D-23, -9.8D-02, r^2= 7.9D-01
   Bfn.  Coefficient  Atom+Function         Bfn.  Coefficient  Atom+Function  
  ----- ------------  ---------------      ----- ------------  ---------------
    16      0.530249  3 O  pz                19      0.377775  3 O  pz         
    13     -0.299457  3 O  s                  1      0.207448  1 H  s          
     6      0.207448  2 H  s          

 Vector   13  Occ=2.000000D+00  E=-4.865432D-01  Symmetry=a1
              MO Center=  7.5D-20, -1.1D-14, -1.2D-01, r^2= 2.5D+03
   Bfn.  Coefficient  Atom+Function         Bfn.  Coefficient  Atom+Function  
  ----- ------------  ---------------      ----- ------------  ---------------
    39      0.450662  6 O  py                63     -0.450662  9 O  py         
    42      0.352920  6 O  py                66     -0.352920  9 O  py         

 Vector   14  Occ=2.000000D+00  E=-4.865432D-01  Symmetry=b2
              MO Center=  2.6D-20, -1.7D-14, -1.2D-01, r^2= 2.5D+03
   Bfn.  Coefficient  Atom+Function         Bfn.  Coefficient  Atom+Function  
  ----- ------------  ---------------      ----- ------------  ---------------
    39      0.450662  6 O  py                63      0.450662  9 O  py         
    42      0.352920  6 O  py                66      0.352920  9 O  py         

 Vector   15  Occ=2.000000D+00  E=-4.865416D-01  Symmetry=b2
              MO Center= -2.9D-19, -3.6D-18, -1.2D-01, r^2= 6.0D-01
   Bfn.  Coefficient  Atom+Function         Bfn.  Coefficient  Atom+Function  
  ----- ------------  ---------------      ----- ------------  ---------------
    15      0.637333  3 O  py                18      0.499104  3 O  py         

 Vector   16  Occ=0.000000D+00  E= 1.576223D-01  Symmetry=b2
              MO Center=  3.9D-17,  9.9D-15,  6.0D-01, r^2= 2.5D+03
   Bfn.  Coefficient  Atom+Function         Bfn.  Coefficient  Atom+Function  
  ----- ------------  ---------------      ----- ------------  ---------------
    37      0.597189  6 O  s                 61     -0.597189  9 O  s          
    26     -0.534829  4 H  s                 31     -0.534829  5 H  s          
    50      0.534829  7 H  s                 55      0.534829  8 H  s          
    43      0.273396  6 O  pz                67     -0.273396  9 O  pz         
    40      0.173563  6 O  pz                64     -0.173563  9 O  pz         

 Vector   17  Occ=0.000000D+00  E= 1.576223D-01  Symmetry=a1
              MO Center= -2.5D-17, -7.1D-15,  6.0D-01, r^2= 2.5D+03
   Bfn.  Coefficient  Atom+Function         Bfn.  Coefficient  Atom+Function  
  ----- ------------  ---------------      ----- ------------  ---------------
    37      0.597189  6 O  s                 61      0.597189  9 O  s          
    26     -0.534829  4 H  s                 31     -0.534829  5 H  s          
    50     -0.534829  7 H  s                 55     -0.534829  8 H  s          
    43      0.273396  6 O  pz                67      0.273396  9 O  pz         
    40      0.173563  6 O  pz                64      0.173563  9 O  pz         

 Vector   18  Occ=0.000000D+00  E= 1.576232D-01  Symmetry=a1
              MO Center=  5.0D-17, -5.8D-18,  6.0D-01, r^2= 2.9D+00
   Bfn.  Coefficient  Atom+Function         Bfn.  Coefficient  Atom+Function  
  ----- ------------  ---------------      ----- ------------  ---------------
    13      0.844553  3 O  s                  2     -0.756362  1 H  s          
     7     -0.756362  2 H  s                 19      0.386641  3 O  pz         
    16      0.245456  3 O  pz         

 Vector   19  Occ=0.000000D+00  E= 2.295136D-01  Symmetry=b1
              MO Center= -1.7D-16,  2.3D-15,  6.2D-01, r^2= 2.5D+03
   Bfn.  Coefficient  Atom+Function         Bfn.  Coefficient  Atom+Function  
  ----- ------------  ---------------      ----- ------------  ---------------
    26      0.836540  4 H  s                 31     -0.836540  5 H  s          
    50      0.836540  7 H  s                 55     -0.836540  8 H  s          
    41     -0.463196  6 O  px                65     -0.463196  9 O  px         
    38     -0.232283  6 O  px                62     -0.232283  9 O  px         

 Vector   20  Occ=0.000000D+00  E= 2.295136D-01  Symmetry=a2
              MO Center= -2.5D-16, -4.7D-15,  6.2D-01, r^2= 2.5D+03
   Bfn.  Coefficient  Atom+Function         Bfn.  Coefficient  Atom+Function  
  ----- ------------  ---------------      ----- ------------  ---------------
    26      0.836540  4 H  s                 31     -0.836540  5 H  s          
    50     -0.836540  7 H  s                 55      0.836540  8 H  s          
    41     -0.463196  6 O  px                65      0.463196  9 O  px         
    38     -0.232283  6 O  px                62      0.232283  9 O  px         

 Vector   21  Occ=0.000000D+00  E= 2.295145D-01  Symmetry=b1
              MO Center= -2.8D-17,  1.7D-21,  6.2D-01, r^2= 3.4D+00
   Bfn.  Coefficient  Atom+Function         Bfn.  Coefficient  Atom+Function  
  ----- ------------  ---------------      ----- ------------  ---------------
     2      1.183047  1 H  s                  7     -1.183047  2 H  s          
    17     -0.655059  3 O  px                14     -0.328498  3 O  px         

 Vector   22  Occ=0.000000D+00  E= 7.046799D-01  Symmetry=a2
              MO Center=  1.7D-17, -2.1D-16,  3.7D-01, r^2= 2.5D+03
   Bfn.  Coefficient  Atom+Function         Bfn.  Coefficient  Atom+Function  
  ----- ------------  ---------------      ----- ------------  ---------------
    25      0.658853  4 H  s                 30     -0.658853  5 H  s          
    49     -0.658853  7 H  s                 54      0.658853  8 H  s          
    26     -0.615336  4 H  s                 31      0.615336  5 H  s          
    50      0.615336  7 H  s                 55     -0.615336  8 H  s          
    38     -0.199374  6 O  px                62      0.199374  9 O  px         

 Vector   23  Occ=0.000000D+00  E= 7.046799D-01  Symmetry=b1
              MO Center= -5.5D-16, -3.1D-15,  3.7D-01, r^2= 2.5D+03
   Bfn.  Coefficient  Atom+Function         Bfn.  Coefficient  Atom+Function  
  ----- ------------  ---------------      ----- ------------  ---------------
    25      0.658853  4 H  s                 30     -0.658853  5 H  s          
    49      0.658853  7 H  s                 54     -0.658853  8 H  s          
    26     -0.615336  4 H  s                 31      0.615336  5 H  s          
    50     -0.615336  7 H  s                 55      0.615336  8 H  s          
    38     -0.199374  6 O  px                62     -0.199374  9 O  px         

 Vector   24  Occ=0.000000D+00  E= 7.046813D-01  Symmetry=b1
              MO Center= -1.2D-16, -2.8D-20,  3.7D-01, r^2= 2.2D+00
   Bfn.  Coefficient  Atom+Function         Bfn.  Coefficient  Atom+Function  
  ----- ------------  ---------------      ----- ------------  ---------------
     1      0.931758  1 H  s                  6     -0.931758  2 H  s          
     2     -0.870216  1 H  s                  7      0.870216  2 H  s          
    14     -0.281958  3 O  px                17     -0.238490  3 O  px         

 Vector   25  Occ=0.000000D+00  E= 7.445649D-01  Symmetry=a1
              MO Center=  1.9D-16,  5.6D-15,  5.7D-01, r^2= 2.5D+03
   Bfn.  Coefficient  Atom+Function         Bfn.  Coefficient  Atom+Function  
  ----- ------------  ---------------      ----- ------------  ---------------
    25      0.616806  4 H  s                 30      0.616806  5 H  s          
    49      0.616806  7 H  s                 54      0.616806  8 H  s          
    26     -0.455456  4 H  s                 31     -0.455456  5 H  s          
    50     -0.455456  7 H  s                 55     -0.455456  8 H  s          
    37      0.247748  6 O  s                 61      0.247748  9 O  s          


 center of mass
 --------------
 x =   0.00000000 y =   0.00000000 z =  -0.11272947

 moments of inertia (a.u.)
 ------------------
      321593.135777649586           0.000000000000           0.000000000000
           0.000000000000          25.020403917173           0.000000000000
           0.000000000000           0.000000000000      321600.565162245126

  Mulliken analysis of the total density
  --------------------------------------

    Atom       Charge   Shell Charges
 -----------   ------   -------------------------------------------------------
    1 H    1     0.78   0.60  0.12  0.06
    2 H    1     0.78   0.60  0.12  0.06
    3 O    8     8.44   2.00  0.85  0.94  2.71  1.93  0.01
    4 H    1     0.78   0.60  0.12  0.06
    5 H    1     0.78   0.60  0.12  0.06
    6 O    8     8.44   2.00  0.85  0.94  2.71  1.93  0.01
    7 H    1     0.78   0.60  0.12  0.06
    8 H    1     0.78   0.60  0.12  0.06
    9 O    8     8.44   2.00  0.85  0.94  2.71  1.93  0.01

       Multipole analysis of the density wrt the origin
       ------------------------------------------------

     L   x y z        total         open         nuclear
     -   - - -        -----         ----         -------
     0   0 0 0     -0.000000      0.000000     30.000000

     1   1 0 0      0.000000      0.000000      0.000000
     1   0 1 0      0.000000      0.000000      0.000000
     1   0 0 1      2.569032      0.000000      0.000000

     2   2 0 0     -8.563873      0.000000     16.098920
     2   1 1 0      0.000000      0.000000      0.000000
     2   1 0 1      0.000000      0.000000      0.000000
     2   0 2 0    -16.395160      0.000000 178553.215596
     2   0 1 1      0.000000      0.000000      0.000000
     2   0 0 2    -13.162663      0.000000      7.861606


 Parallel integral file used       4 records with       0 large values

                   NWChem Extensible Many-Electron Theory Module
                   ---------------------------------------------

              ======================================================
                   This portion of the program was automatically
                  generated by a Tensor Contraction Engine (TCE).
                  The development of this portion of the program
                 and TCE was supported by US Department of Energy,
                Office of Science, Office of Basic Energy Science.
                      TCE is a product of Battelle and PNNL.
              Please cite: S.Hirata, J.Phys.Chem.A 107, 9887 (2003).
              ======================================================

                                        H2O


            General Information
            -------------------
      Number of processors :     4
         Wavefunction type : Restricted Hartree-Fock
          No. of electrons :    30
           Alpha electrons :    15
            Beta electrons :    15
           No. of orbitals :   144
            Alpha orbitals :    72
             Beta orbitals :    72
        Alpha frozen cores :     0
         Beta frozen cores :     0
     Alpha frozen virtuals :     0
      Beta frozen virtuals :     0
         Spin multiplicity : singlet 
    Number of AO functions :    72
       Number of AO shells :    36
        Use of symmetry is : on 
      Symmetry adaption is : on 
         Schwarz screening : 0.10D-09

          Correlation Information
          -----------------------
          Calculation type : Coupled-cluster singles & doubles                           
   Perturbative correction : none                                                        
            Max iterations :      100
        Residual threshold : 0.10D-06
     T(0) DIIS level shift : 0.00D+00
     L(0) DIIS level shift : 0.00D+00
     T(1) DIIS level shift : 0.00D+00
     L(1) DIIS level shift : 0.00D+00
     T(R) DIIS level shift : 0.00D+00
     T(I) DIIS level shift : 0.00D+00
   CC-T/L Amplitude update :  5-th order DIIS
                I/O scheme : Global Array Library
        L-threshold :  0.10D-06
        EOM-threshold :  0.10D-06
 no EOMCCSD initial starts read in
 TCE RESTART OPTIONS
 READ_INT:   F
 WRITE_INT:  F
 READ_TA:    F
 WRITE_TA:   F
 READ_XA:    F
 WRITE_XA:   F
 READ_IN3:   F
 WRITE_IN3:  F
 SLICE:      F
 D4D5:       F
 quantumc:   F
 qrotation:  F
 pwtce:      F
 qducc:      F
 nacto:                         0
 nrotv:                         0
 nrot:                          0

            Memory Information
            ------------------
          Available GA space size is     536865728 doubles
          Available MA space size is     134213492 doubles

 Maximum block size        32 doubles

 tile_dim =     19

 Block   Spin    Irrep     Size     Offset   Alpha
 -------------------------------------------------
   1    alpha     a1     7 doubles       0       1
   2    alpha     a2     1 doubles       7       2
   3    alpha     b1     2 doubles       8       3
   4    alpha     b2     5 doubles      10       4
   5    beta      a1     7 doubles      15       1
   6    beta      a2     1 doubles      22       2
   7    beta      b1     2 doubles      23       3
   8    beta      b2     5 doubles      25       4
   9    alpha     a1    19 doubles      30       9
  10    alpha     a2    10 doubles      49      10
  11    alpha     b1    14 doubles      59      11
  12    alpha     b2    14 doubles      73      12
  13    beta      a1    19 doubles      87       9
  14    beta      a2    10 doubles     106      10
  15    beta      b1    14 doubles     116      11
  16    beta      b2    14 doubles     130      12

 Global array virtual files algorithm will be used

 Parallel file system coherency ......... OK
  avail0,avail1,avail0-avail1                309220               309220                    0
  avail0,avail1,avail0-avail1                309220               309220                    0
  avail0,avail1,avail0-avail1                309220               309235                  -15
  avail0,avail1,avail0-avail1                309220               309235                  -15

 Integral file          = ./molecule.aoints.0
 Record size in doubles =  65536        No. of integs per rec  =  43688
 Max. records in memory =     11        Max. records in file   =   9178
 No. of bits per label  =      8        No. of bits per value  =     64


 #quartets = 2.750D+04 #integrals = 2.867D+05 #direct =  0.0% #cached =100.0%


File balance: exchanges=     0  moved=     0  time=   0.0


 Fock matrix recomputed
 1-e file size   =             1414
 1-e file name   = ./molecule.f1
 Cpu & wall time / sec            0.0            0.0

 tce_ao2e: fast2e=1
 half-transformed integrals in memory

 2-e (intermediate) file size =        58579200
 2-e (intermediate) file name = ./molecule.v2i
 Cpu & wall time / sec            0.4            0.4

 tce_mo2e: fast2e=1
 2-e integrals stored in memory

 2-e file size   =          9313450
 2-e file name   = ./molecule.v2
 Cpu & wall time / sec            1.1            1.1
 T1-number-of-tasks                    4

 t1 file size   =              241
 t1 file name   = ./molecule.t1
 t1 file handle =       -999
 T2-number-of-boxes                   92

 t2 file size   =           281264
 t2 file name   = ./molecule.t2
 t2 file handle =       -996
CCSD iterations
 ---------------------------------------------------------
 Iter          Residuum       Correlation     Cpu    Wall 
 ---------------------------------------------------------
NEW TASK SCHEDULING
CCSD_T1_NTS --- OK
CCSD_T2_NTS --- OK
    1   0.2001648354424  -0.6430058704683     0.1     0.1
    2   0.0600214162321  -0.6553319921807     0.1     0.1
    3   0.0236671791481  -0.6666365158931     0.1     0.1
    4   0.0104494560793  -0.6694793822577     0.1     0.1
    5   0.0048161710219  -0.6707662205731     0.1     0.1
 MICROCYCLE DIIS UPDATE:                    5                    5
    6   0.0006904614158  -0.6716740062167     0.1     0.1
    7   0.0003959634097  -0.6717205679086     0.1     0.1
    8   0.0001941554396  -0.6717241439365     0.1     0.1
    9   0.0001196662657  -0.6717251130563     0.1     0.1
   10   0.0000691662757  -0.6717271073794     0.1     0.1
 MICROCYCLE DIIS UPDATE:                   10                    5
   11   0.0000072445351  -0.6717306600095     0.1     0.1
   12   0.0000028357372  -0.6717302386859     0.1     0.1
   13   0.0000013952165  -0.6717304336092     0.1     0.1
   14   0.0000007481497  -0.6717304454944     0.1     0.1
   15   0.0000004022173  -0.6717304565317     0.1     0.1
 MICROCYCLE DIIS UPDATE:                   15                    5
   16   0.0000000620038  -0.6717304550280     0.1     0.1
 -----------------------------------------------------------------
 Iterations converged
 CCSD correlation energy / hartree =        -0.671730455028016
 CCSD total energy / hartree       =      -228.641116222278811

 Singles contributions

 Doubles contributions

 Parallel integral file used       9 records with       0 large values


 Task  times  cpu:        3.6s     wall:        3.6s


                                NWChem Input Module
                                -------------------


 Summary of allocated global arrays
-----------------------------------
  No active global arrays


MA_summarize_allocated_blocks: starting scan ...
MA_summarize_allocated_blocks: scan completed: 0 heap blocks, 0 stack blocks
MA usage statistics:

	allocation statistics:
					      heap	     stack
					      ----	     -----
	current number of blocks	         0	         0
	maximum number of blocks	        18	        36
	current total bytes		         0	         0
	maximum total bytes		   5798920	  22510888
	maximum total K-bytes		      5799	     22511
	maximum total M-bytes		         6	        23


                                     CITATION
                                     --------
                Please cite the following reference when publishing
                           results obtained with NWChem:

          E. Apra, E. J. Bylaska, W. A. de Jong, N. Govind, K. Kowalski,
       T. P. Straatsma, M. Valiev, H. J. J. van Dam, Y. Alexeev, J. Anchell,
       V. Anisimov, F. W. Aquino, R. Atta-Fynn, J. Autschbach, N. P. Bauman,
     J. C. Becca, D. E. Bernholdt, K. Bhaskaran-Nair, S. Bogatko, P. Borowski,
         J. Boschen, J. Brabec, A. Bruner, E. Cauet, Y. Chen, G. N. Chuev,
      C. J. Cramer, J. Daily, M. J. O. Deegan, T. H. Dunning Jr., M. Dupuis,
   K. G. Dyall, G. I. Fann, S. A. Fischer, A. Fonari, H. Fruchtl, L. Gagliardi,
      J. Garza, N. Gawande, S. Ghosh, K. Glaesemann, A. W. Gotz, J. Hammond,
       V. Helms, E. D. Hermes, K. Hirao, S. Hirata, M. Jacquelin, L. Jensen,
   B. G. Johnson, H. Jonsson, R. A. Kendall, M. Klemm, R. Kobayashi, V. Konkov,
      S. Krishnamoorthy, M. Krishnan, Z. Lin, R. D. Lins, R. J. Littlefield,
      A. J. Logsdail, K. Lopata, W. Ma, A. V. Marenich, J. Martin del Campo,
   D. Mejia-Rodriguez, J. E. Moore, J. M. Mullin, T. Nakajima, D. R. Nascimento,
    J. A. Nichols, P. J. Nichols, J. Nieplocha, A. Otero-de-la-Roza, B. Palmer,
    A. Panyala, T. Pirojsirikul, B. Peng, R. Peverati, J. Pittner, L. Pollack,
   R. M. Richard, P. Sadayappan, G. C. Schatz, W. A. Shelton, D. W. Silverstein,
   D. M. A. Smith, T. A. Soares, D. Song, M. Swart, H. L. Taylor, G. S. Thomas,
            V. Tipparaju, D. G. Truhlar, K. Tsemekhman, T. Van Voorhis,
      A. Vazquez-Mayagoitia, P. Verma, O. Villa, A. Vishnu, K. D. Vogiatzis,
        D. Wang, J. H. Weare, M. J. Williamson, T. L. Windus, K. Wolinski,
        A. T. Wong, Q. Wu, C. Yang, Q. Yu, M. Zacharias, Z. Zhang, Y. Zhao,
                                and R. J. Harrison
                        "NWChem: Past, present, and future
                         J. Chem. Phys. 152, 184102 (2020)
                               doi:10.1063/5.0004997

                                      AUTHORS
                                      -------
  E. Apra, E. J. Bylaska, N. Govind, K. Kowalski, M. Valiev, D. Mejia-Rodriguez,
       A. Kunitsa, N. P. Bauman, A. Panyala, W. A. de Jong, T. P. Straatsma,
   H. J. J. van Dam, D. Wang, T. L. Windus, J. Hammond, J. Autschbach, A. Woods,
    K. Bhaskaran-Nair, J. Brabec, K. Lopata, S. A. Fischer, S. Krishnamoorthy,
     M. Jacquelin, W. Ma, M. Klemm, O. Villa, Y. Chen, V. Anisimov, F. Aquino,
     S. Hirata, M. T. Hackler, E. Hermes, L. Jensen, J. E. Moore, J. C. Becca,
      V. Konjkov, T. Risthaus, M. Malagoli, A. Marenich, A. Otero-de-la-Roza,
        J. Mullin, P. Nichols, R. Peverati, J. Pittner, Y. Zhao, P.-D. Fan,
        A. Fonari, M. J. Williamson, R. J. Harrison, J. R. Rehr, M. Dupuis,
     D. Silverstein, D. M. A. Smith, J. Nieplocha, V. Tipparaju, M. Krishnan,
     B. E. Van Kuiken, A. Vazquez-Mayagoitia, M. Swart, Q. Wu, T. Van Voorhis,
     A. A. Auer, M. Nooijen, L. D. Crosby, E. Brown, G. Cisneros, G. I. Fann,
   H. Fruchtl, J. Garza, K. Hirao, R. A. Kendall, J. A. Nichols, K. Tsemekhman,
    K. Wolinski, J. Anchell, D. E. Bernholdt, P. Borowski, T. Clark, D. Clerc,
   H. Dachsel, M. J. O. Deegan, K. Dyall, D. Elwood, E. Glendening, M. Gutowski,
   A. C. Hess, J. Jaffe, B. G. Johnson, J. Ju, R. Kobayashi, R. Kutteh, Z. Lin,
   R. Littlefield, X. Long, B. Meng, T. Nakajima, S. Niu, L. Pollack, M. Rosing,
   K. Glaesemann, G. Sandrone, M. Stave, H. Taylor, G. Thomas, J. H. van Lenthe,
                               A. T. Wong, Z. Zhang.

 Total times  cpu:        3.6s     wall:        3.6s
