 argument  1 = H2O_three_MP2.nw



============================== echo of input deck ==============================
echo
start molecule
title "H2O"
charge 0
memory total 2 gb
geometry units angstrom
H 0.86681 0.60144 0.00000
H -0.86681 0.60144 0.00000
O 0.00000 -0.07579 0.00000
H 0.86681 0.60144 20.00000
H -0.86681 0.60144 20.00000
O 0.00000 -0.07579 20.00000
H 0.86681 0.60144 -20.00000
H -0.86681 0.60144 -20.00000
O 0.00000 -0.07579 -20.00000
end
basis spherical
* library cc-pVDZ
end
task mp2
================================================================================


                                         
                                         


             Northwest Computational Chemistry Package (NWChem) 7.2.2
             --------------------------------------------------------


                    Environmental Molecular Sciences Laboratory
                       Pacific Northwest National Laboratory
                                Richland, WA 99352

                              Copyright (c) 1994-2022
                       Pacific Northwest National Laboratory
                            Battelle Memorial Institute

             NWChem is an open-source computational chemistry package
                        distributed under the terms of the
                      Educational Community License (ECL) 2.0
             A copy of the license is included with this distribution
                              in the LICENSE.TXT file

                                  ACKNOWLEDGMENT
                                  --------------

            This software and its documentation were developed at the
            EMSL at Pacific Northwest National Laboratory, a multiprogram
            national laboratory, operated for the U.S. Department of Energy
            by Battelle under Contract Number DE-AC05-76RL01830. Support
            for this work was provided by the Department of Energy Office
            of Biological and Environmental Research, Office of Basic
            Energy Sciences, and the Office of Advanced Scientific Computing.


           Job information
           ---------------

    hostname        = Eliass-MacBook-Air.local
    program         = nwchem
    date            = Mon Mar 25 13:46:29 2024

    compiled        = Sun_Dec_10_10:51:21_2023
    source          = /private/tmp/nwchem-20231210-5888-3uvdjr/nwchem-7.2.2
    nwchem branch   = 7.2.2
    nwchem revision = 74936fb9
    ga revision     = 5.8.0
    use scalapack   = T
    input           = H2O_three_MP2.nw
    prefix          = molecule.
    data base       = ./molecule.db
    status          = startup
    nproc           =        4
    time left       =     -1s



           Memory information
           ------------------

    heap     =   67108860 doubles =    512.0 Mbytes
    stack    =   67108865 doubles =    512.0 Mbytes
    global   =  134217728 doubles =   1024.0 Mbytes (distinct from heap & stack)
    total    =  268435453 doubles =   2048.0 Mbytes
    verify   = yes
    hardfail = no 


           Directory information
           ---------------------

  0 permanent = .
  0 scratch   = .




                                NWChem Input Module
                                -------------------


                                        H2O
                                        ---

 Scaling coordinates for geometry "geometry" by  1.889725989
 (inverse scale =  0.529177249)

 C2V symmetry detected

          ------
          auto-z
          ------
  autoz: The atoms group into disjoint clusters
 cluster   1:    1    2    3
 cluster   2:    4    5    6
 cluster   3:    7    8    9
     1 autoz failed with cvr_scaling = 1.2 changing to 1.3
  autoz: The atoms group into disjoint clusters
 cluster   1:    1    2    3
 cluster   2:    4    5    6
 cluster   3:    7    8    9
     2 autoz failed with cvr_scaling = 1.3 changing to 1.4
  autoz: The atoms group into disjoint clusters
 cluster   1:    1    2    3
 cluster   2:    4    5    6
 cluster   3:    7    8    9
     3 autoz failed with cvr_scaling = 1.4 changing to 1.5
  autoz: The atoms group into disjoint clusters
 cluster   1:    1    2    3
 cluster   2:    4    5    6
 cluster   3:    7    8    9
     4 autoz failed with cvr_scaling = 1.5 changing to 1.6
  autoz: The atoms group into disjoint clusters
 cluster   1:    1    2    3
 cluster   2:    4    5    6
 cluster   3:    7    8    9
     5 autoz failed with cvr_scaling = 1.6 changing to 1.7
  autoz: The atoms group into disjoint clusters
 cluster   1:    1    2    3
 cluster   2:    4    5    6
 cluster   3:    7    8    9

 AUTOZ failed to generate good internal coordinates.
 Cartesian coordinates will be used in optimizations.



                             Geometry "geometry" -> ""
                             -------------------------

 Output coordinates in angstroms (scale by  1.889725989 to convert to a.u.)

  No.       Tag          Charge          X              Y              Z
 ---- ---------------- ---------- -------------- -------------- --------------
    1 H                    1.0000     0.86681000     0.00000000     0.54178400
    2 H                    1.0000    -0.86681000     0.00000000     0.54178400
    3 O                    8.0000     0.00000000     0.00000000    -0.13544600
    4 H                    1.0000     0.86681000   -20.00000000     0.54178400
    5 H                    1.0000    -0.86681000   -20.00000000     0.54178400
    6 O                    8.0000     0.00000000   -20.00000000    -0.13544600
    7 H                    1.0000     0.86681000    20.00000000     0.54178400
    8 H                    1.0000    -0.86681000    20.00000000     0.54178400
    9 O                    8.0000     0.00000000    20.00000000    -0.13544600

      Atomic Mass 
      ----------- 

      H                  1.007825
      O                 15.994910


 Effective nuclear repulsion energy (a.u.)      30.6186826644

            Nuclear Dipole moment (a.u.) 
            ----------------------------
        X                 Y               Z
 ---------------- ---------------- ----------------
     0.0000000000     0.0000000000     0.0000000000

      Symmetry information
      --------------------

 Group name             C2v       
 Group number             16
 Group order               4
 No. of unique centers     4

      Symmetry unique atoms

     1    3    4    6


            XYZ format geometry
            -------------------
     9
 geometry
 H                     0.86681000     0.00000000     0.54178400
 H                    -0.86681000     0.00000000     0.54178400
 O                     0.00000000     0.00000000    -0.13544600
 H                     0.86681000   -20.00000000     0.54178400
 H                    -0.86681000   -20.00000000     0.54178400
 O                     0.00000000   -20.00000000    -0.13544600
 H                     0.86681000    20.00000000     0.54178400
 H                    -0.86681000    20.00000000     0.54178400
 O                     0.00000000    20.00000000    -0.13544600

  library name resolved from: .nwchemrc
  library file name is: </opt/homebrew/Cellar/nwchem/7.2.2/share/nwchem/libraries/>
  


 Summary of "ao basis" -> "" (spherical)
 ------------------------------------------------------------------------------
       Tag                 Description            Shells   Functions and Types
 ---------------- ------------------------------  ------  ---------------------
 *                          cc-pVDZ                   on all atoms 


                      Basis "ao basis" -> "ao basis" (spherical)
                      -----
  H (Hydrogen)
  ------------
            Exponent  Coefficients 
       -------------- ---------------------------------------------------------
  1 S  1.30100000E+01  0.019685
  1 S  1.96200000E+00  0.137977
  1 S  4.44600000E-01  0.478148

  2 S  1.22000000E-01  1.000000

  3 P  7.27000000E-01  1.000000

  O (Oxygen)
  ----------
            Exponent  Coefficients 
       -------------- ---------------------------------------------------------
  1 S  1.17200000E+04  0.000710
  1 S  1.75900000E+03  0.005470
  1 S  4.00800000E+02  0.027837
  1 S  1.13700000E+02  0.104800
  1 S  3.70300000E+01  0.283062
  1 S  1.32700000E+01  0.448719
  1 S  5.02500000E+00  0.270952
  1 S  1.01300000E+00  0.015458

  2 S  1.17200000E+04 -0.000160
  2 S  1.75900000E+03 -0.001263
  2 S  4.00800000E+02 -0.006267
  2 S  1.13700000E+02 -0.025716
  2 S  3.70300000E+01 -0.070924
  2 S  1.32700000E+01 -0.165411
  2 S  5.02500000E+00 -0.116955
  2 S  1.01300000E+00  0.557368

  3 S  3.02300000E-01  1.000000

  4 P  1.77000000E+01  0.043018
  4 P  3.85400000E+00  0.228913
  4 P  1.04600000E+00  0.508728

  5 P  2.75300000E-01  1.000000

  6 D  1.18500000E+00  1.000000



 Summary of "ao basis" -> "ao basis" (spherical)
 ------------------------------------------------------------------------------
       Tag                 Description            Shells   Functions and Types
 ---------------- ------------------------------  ------  ---------------------
 H                          cc-pVDZ                  3        5   2s1p
 O                          cc-pVDZ                  6       14   3s2p1d


                                 NWChem SCF Module
                                 -----------------


                                        H2O



  ao basis        = "ao basis"
  functions       =    72
  atoms           =     9
  closed shells   =    15
  open shells     =     0
  charge          =   0.00
  wavefunction    = RHF 
  input vectors   = atomic
  output vectors  = ./molecule.movecs
  use symmetry    = T
  symmetry adapt  = T


 Summary of "ao basis" -> "ao basis" (spherical)
 ------------------------------------------------------------------------------
       Tag                 Description            Shells   Functions and Types
 ---------------- ------------------------------  ------  ---------------------
 H                          cc-pVDZ                  3        5   2s1p
 O                          cc-pVDZ                  6       14   3s2p1d


      Symmetry analysis of basis
      --------------------------

        a1         26
        a2         11
        b1         16
        b2         19


 Forming initial guess at       0.1s


      Superposition of Atomic Density Guess
      -------------------------------------

 Sum of atomic energies:        -227.28668731

      Non-variational initial energy
      ------------------------------

 Total energy =    -226.989826
 1-e energy   =    -372.597069
 2-e energy   =     114.988561
 HOMO         =      -0.431976
 LUMO         =       0.049004


      Symmetry analysis of molecular orbitals - initial
      -------------------------------------------------


 !! scf_movecs_sym_adapt:   55 vectors were symmetry contaminated

  Symmetry fudging

 !! scf_movecs_sym_adapt:   46 vectors were symmetry contaminated

  Numbering of irreducible representations: 

     1 a1          2 a2          3 b1          4 b2      

  Orbital symmetries:

     1 a1          2 b2          3 a1          4 b2          5 a1      
     6 a1          7 b1          8 a2          9 b1         10 b2      
    11 a1         12 a1         13 a1         14 b2         15 b2      
    16 a1         17 a1         18 b2         19 b1         20 a2      
    21 b1         22 b1         23 a2         24 b1         25 a1      


 Starting SCF solution at       0.1s



 ----------------------------------------------
         Quadratically convergent ROHF

 Convergence threshold     :          1.000E-06
 Maximum no. of iterations :           30
 Final Fock-matrix accuracy:          1.000E-08
 ----------------------------------------------


 #quartets = 9.765D+03 #integrals = 9.666D+04 #direct =  0.0% #cached =100.0%


 Integral file          = ./molecule.aoints.0
 Record size in doubles =  65536        No. of integs per rec  =  43688
 Max. records in memory =     11        Max. records in file   = 145989
 No. of bits per label  =      8        No. of bits per value  =     64


File balance: exchanges=     0  moved=     0  time=   0.0


              iter       energy          gnorm     gmax       time
             ----- ------------------- --------- --------- --------
                 1     -227.8452477822  1.47D+00  3.33D-01      0.2
                 2     -227.9592842325  3.54D-01  1.08D-01      0.2
                 3     -227.9686187615  8.98D-02  2.41D-02      0.2
                 4     -227.9693575395  2.81D-03  8.15D-04      0.2
                 5     -227.9693583839  2.62D-06  5.60D-07      0.2
                 6     -227.9693583839  8.30D-08  2.51D-08      0.2


       Final RHF  results 
       ------------------ 

         Total SCF energy =   -227.969358383864
      One-electron energy =   -376.114513370909
      Two-electron energy =    117.526472322676
 Nuclear repulsion energy =     30.618682664369

        Time for solution =      0.1s



       Symmetry analysis of molecular orbitals - final
       -----------------------------------------------

  Numbering of irreducible representations: 

     1 a1          2 a2          3 b1          4 b2      

  Orbital symmetries:

     1 b2          2 a1          3 a1          4 b2          5 a1      
     6 a1          7 b1          8 a2          9 b1         10 b2      
    11 a1         12 a1         13 b2         14 a1         15 b2      
    16 a1         17 b2         18 a1         19 b1         20 a2      
    21 b1         22 b1         23 a2         24 b1         25 b2      

             Final eigenvalues
             -----------------

              1      
    1  -20.5747
    2  -20.5747
    3  -20.5747
    4   -1.2775
    5   -1.2775
    6   -1.2775
    7   -0.6299
    8   -0.6299
    9   -0.6299
   10   -0.5416
   11   -0.5416
   12   -0.5416
   13   -0.4865
   14   -0.4865
   15   -0.4865
   16    0.1576
   17    0.1576
   18    0.1577
   19    0.2295
   20    0.2295
   21    0.2295
   22    0.7047
   23    0.7047
   24    0.7047
   25    0.7446

                       ROHF Final Molecular Orbital Analysis
                       -------------------------------------

 Vector    4  Occ=2.000000D+00  E=-1.277535D+00  Symmetry=b2
              MO Center= -1.9D-17,  1.1D-15,  2.6D-04, r^2= 4.0D+02
   Bfn.  Coefficient  Atom+Function         Bfn.  Coefficient  Atom+Function  
  ----- ------------  ---------------      ----- ------------  ---------------
    37      0.325666  6 O  s                 61     -0.325666  9 O  s          
    36      0.322929  6 O  s                 60     -0.322929  9 O  s          

 Vector    5  Occ=2.000000D+00  E=-1.277535D+00  Symmetry=a1
              MO Center= -1.2D-17, -1.7D-15,  2.6D-04, r^2= 4.0D+02
   Bfn.  Coefficient  Atom+Function         Bfn.  Coefficient  Atom+Function  
  ----- ------------  ---------------      ----- ------------  ---------------
    37      0.325666  6 O  s                 61      0.325666  9 O  s          
    36      0.322929  6 O  s                 60      0.322929  9 O  s          

 Vector    6  Occ=2.000000D+00  E=-1.277511D+00  Symmetry=a1
              MO Center=  3.2D-17, -2.9D-22,  2.7D-04, r^2= 5.2D-01
   Bfn.  Coefficient  Atom+Function         Bfn.  Coefficient  Atom+Function  
  ----- ------------  ---------------      ----- ------------  ---------------
    13      0.460557  3 O  s                 12      0.456692  3 O  s          

 Vector    7  Occ=2.000000D+00  E=-6.298799D-01  Symmetry=b1
              MO Center= -6.5D-18,  4.1D-16,  1.2D-01, r^2= 4.0D+02
   Bfn.  Coefficient  Atom+Function         Bfn.  Coefficient  Atom+Function  
  ----- ------------  ---------------      ----- ------------  ---------------
    38      0.335444  6 O  px                62      0.335444  9 O  px         
    25      0.211848  4 H  s                 30     -0.211848  5 H  s          
    49      0.211848  7 H  s                 54     -0.211848  8 H  s          
    41      0.185182  6 O  px                65      0.185182  9 O  px         

 Vector    8  Occ=2.000000D+00  E=-6.298799D-01  Symmetry=a2
              MO Center=  7.7D-18, -2.4D-15,  1.2D-01, r^2= 4.0D+02
   Bfn.  Coefficient  Atom+Function         Bfn.  Coefficient  Atom+Function  
  ----- ------------  ---------------      ----- ------------  ---------------
    38      0.335444  6 O  px                62     -0.335444  9 O  px         
    25      0.211848  4 H  s                 30     -0.211848  5 H  s          
    49     -0.211848  7 H  s                 54      0.211848  8 H  s          
    41      0.185182  6 O  px                65     -0.185182  9 O  px         

 Vector    9  Occ=2.000000D+00  E=-6.298558D-01  Symmetry=b1
              MO Center=  3.7D-18,  1.3D-32,  1.2D-01, r^2= 9.1D-01
   Bfn.  Coefficient  Atom+Function         Bfn.  Coefficient  Atom+Function  
  ----- ------------  ---------------      ----- ------------  ---------------
    14      0.474388  3 O  px                 1      0.299605  1 H  s          
     6     -0.299605  2 H  s                 17      0.261877  3 O  px         

 Vector   10  Occ=2.000000D+00  E=-5.416496D-01  Symmetry=b2
              MO Center= -4.2D-19,  1.6D-15, -9.8D-02, r^2= 4.0D+02
   Bfn.  Coefficient  Atom+Function         Bfn.  Coefficient  Atom+Function  
  ----- ------------  ---------------      ----- ------------  ---------------
    40      0.374939  6 O  pz                64     -0.374939  9 O  pz         
    43      0.267119  6 O  pz                67     -0.267119  9 O  pz         
    37     -0.211759  6 O  s                 61      0.211759  9 O  s          

 Vector   11  Occ=2.000000D+00  E=-5.416496D-01  Symmetry=a1
              MO Center= -1.1D-17, -4.5D-15, -9.8D-02, r^2= 4.0D+02
   Bfn.  Coefficient  Atom+Function         Bfn.  Coefficient  Atom+Function  
  ----- ------------  ---------------      ----- ------------  ---------------
    40      0.374939  6 O  pz                64      0.374939  9 O  pz         
    43      0.267119  6 O  pz                67      0.267119  9 O  pz         
    37     -0.211759  6 O  s                 61     -0.211759  9 O  s          

 Vector   12  Occ=2.000000D+00  E=-5.416221D-01  Symmetry=a1
              MO Center=  4.0D-18,  3.6D-27, -9.8D-02, r^2= 7.9D-01
   Bfn.  Coefficient  Atom+Function         Bfn.  Coefficient  Atom+Function  
  ----- ------------  ---------------      ----- ------------  ---------------
    16      0.530241  3 O  pz                19      0.377754  3 O  pz         
    13     -0.299487  3 O  s                  1      0.207454  1 H  s          
     6      0.207454  2 H  s          

 Vector   13  Occ=2.000000D+00  E=-4.865131D-01  Symmetry=b2
              MO Center=  2.5D-19,  1.3D-14, -1.2D-01, r^2= 4.0D+02
   Bfn.  Coefficient  Atom+Function         Bfn.  Coefficient  Atom+Function  
  ----- ------------  ---------------      ----- ------------  ---------------
    39      0.450665  6 O  py                63      0.450665  9 O  py         
    42      0.352917  6 O  py                66      0.352917  9 O  py         

 Vector   14  Occ=2.000000D+00  E=-4.865131D-01  Symmetry=a1
              MO Center=  1.0D-18, -1.1D-14, -1.2D-01, r^2= 4.0D+02
   Bfn.  Coefficient  Atom+Function         Bfn.  Coefficient  Atom+Function  
  ----- ------------  ---------------      ----- ------------  ---------------
    39      0.450665  6 O  py                63     -0.450665  9 O  py         
    42      0.352917  6 O  py                66     -0.352917  9 O  py         

 Vector   15  Occ=2.000000D+00  E=-4.864883D-01  Symmetry=b2
              MO Center= -1.4D-19,  5.9D-20, -1.2D-01, r^2= 6.0D-01
   Bfn.  Coefficient  Atom+Function         Bfn.  Coefficient  Atom+Function  
  ----- ------------  ---------------      ----- ------------  ---------------
    15      0.637339  3 O  py                18      0.499096  3 O  py         

 Vector   16  Occ=0.000000D+00  E= 1.576399D-01  Symmetry=a1
              MO Center=  1.5D-18,  2.9D-16,  6.0D-01, r^2= 4.0D+02
   Bfn.  Coefficient  Atom+Function         Bfn.  Coefficient  Atom+Function  
  ----- ------------  ---------------      ----- ------------  ---------------
    37      0.597190  6 O  s                 61      0.597190  9 O  s          
    26     -0.534831  4 H  s                 31     -0.534831  5 H  s          
    50     -0.534831  7 H  s                 55     -0.534831  8 H  s          
    43      0.273396  6 O  pz                67      0.273396  9 O  pz         
    40      0.173573  6 O  pz                64      0.173573  9 O  pz         

 Vector   17  Occ=0.000000D+00  E= 1.576399D-01  Symmetry=b2
              MO Center= -1.9D-16, -5.3D-15,  6.0D-01, r^2= 4.0D+02
   Bfn.  Coefficient  Atom+Function         Bfn.  Coefficient  Atom+Function  
  ----- ------------  ---------------      ----- ------------  ---------------
    37      0.597190  6 O  s                 61     -0.597190  9 O  s          
    26     -0.534831  4 H  s                 31     -0.534831  5 H  s          
    50      0.534831  7 H  s                 55      0.534831  8 H  s          
    43      0.273396  6 O  pz                67     -0.273396  9 O  pz         
    40      0.173573  6 O  pz                64     -0.173573  9 O  pz         

 Vector   18  Occ=0.000000D+00  E= 1.576545D-01  Symmetry=a1
              MO Center= -4.3D-18,  9.7D-22,  6.0D-01, r^2= 2.9D+00
   Bfn.  Coefficient  Atom+Function         Bfn.  Coefficient  Atom+Function  
  ----- ------------  ---------------      ----- ------------  ---------------
    13      0.844555  3 O  s                  2     -0.756369  1 H  s          
     7     -0.756369  2 H  s                 19      0.386640  3 O  pz         
    16      0.245482  3 O  pz         

 Vector   19  Occ=0.000000D+00  E= 2.295300D-01  Symmetry=b1
              MO Center=  3.9D-16,  2.3D-15,  6.2D-01, r^2= 4.0D+02
   Bfn.  Coefficient  Atom+Function         Bfn.  Coefficient  Atom+Function  
  ----- ------------  ---------------      ----- ------------  ---------------
    26      0.836545  4 H  s                 31     -0.836545  5 H  s          
    50      0.836545  7 H  s                 55     -0.836545  8 H  s          
    41     -0.463200  6 O  px                65     -0.463200  9 O  px         
    38     -0.232283  6 O  px                62     -0.232283  9 O  px         

 Vector   20  Occ=0.000000D+00  E= 2.295300D-01  Symmetry=a2
              MO Center= -8.9D-18, -1.9D-14,  6.2D-01, r^2= 4.0D+02
   Bfn.  Coefficient  Atom+Function         Bfn.  Coefficient  Atom+Function  
  ----- ------------  ---------------      ----- ------------  ---------------
    26      0.836545  4 H  s                 31     -0.836545  5 H  s          
    50     -0.836545  7 H  s                 55      0.836545  8 H  s          
    41     -0.463200  6 O  px                65      0.463200  9 O  px         
    38     -0.232283  6 O  px                62      0.232283  9 O  px         

 Vector   21  Occ=0.000000D+00  E= 2.295435D-01  Symmetry=b1
              MO Center= -7.2D-16, -7.0D-18,  6.2D-01, r^2= 3.4D+00
   Bfn.  Coefficient  Atom+Function         Bfn.  Coefficient  Atom+Function  
  ----- ------------  ---------------      ----- ------------  ---------------
     2      1.183060  1 H  s                  7     -1.183060  2 H  s          
    17     -0.655069  3 O  px                14     -0.328497  3 O  px         

 Vector   22  Occ=0.000000D+00  E= 7.047047D-01  Symmetry=b1
              MO Center= -2.1D-16,  6.9D-16,  3.7D-01, r^2= 4.0D+02
   Bfn.  Coefficient  Atom+Function         Bfn.  Coefficient  Atom+Function  
  ----- ------------  ---------------      ----- ------------  ---------------
    25      0.658848  4 H  s                 30     -0.658848  5 H  s          
    49      0.658848  7 H  s                 54     -0.658848  8 H  s          
    26     -0.615337  4 H  s                 31      0.615337  5 H  s          
    50     -0.615337  7 H  s                 55      0.615337  8 H  s          
    38     -0.199384  6 O  px                62     -0.199384  9 O  px         

 Vector   23  Occ=0.000000D+00  E= 7.047047D-01  Symmetry=a2
              MO Center= -2.0D-16, -5.4D-15,  3.7D-01, r^2= 4.0D+02
   Bfn.  Coefficient  Atom+Function         Bfn.  Coefficient  Atom+Function  
  ----- ------------  ---------------      ----- ------------  ---------------
    25      0.658848  4 H  s                 30     -0.658848  5 H  s          
    49     -0.658848  7 H  s                 54      0.658848  8 H  s          
    26     -0.615337  4 H  s                 31      0.615337  5 H  s          
    50      0.615337  7 H  s                 55     -0.615337  8 H  s          
    38     -0.199384  6 O  px                62      0.199384  9 O  px         

 Vector   24  Occ=0.000000D+00  E= 7.047252D-01  Symmetry=b1
              MO Center= -1.6D-16, -7.7D-18,  3.7D-01, r^2= 2.2D+00
   Bfn.  Coefficient  Atom+Function         Bfn.  Coefficient  Atom+Function  
  ----- ------------  ---------------      ----- ------------  ---------------
     1      0.931745  1 H  s                  6     -0.931745  2 H  s          
     2     -0.870219  1 H  s                  7      0.870219  2 H  s          
    14     -0.281985  3 O  px                17     -0.238454  3 O  px         

 Vector   25  Occ=0.000000D+00  E= 7.445849D-01  Symmetry=b2
              MO Center=  1.5D-16,  1.8D-15,  5.7D-01, r^2= 4.0D+02
   Bfn.  Coefficient  Atom+Function         Bfn.  Coefficient  Atom+Function  
  ----- ------------  ---------------      ----- ------------  ---------------
    25      0.616808  4 H  s                 30      0.616808  5 H  s          
    49     -0.616808  7 H  s                 54     -0.616808  8 H  s          
    26     -0.455454  4 H  s                 31     -0.455454  5 H  s          
    50      0.455454  7 H  s                 55      0.455454  8 H  s          
    37      0.247749  6 O  s                 61     -0.247749  9 O  s          


 center of mass
 --------------
 x =   0.00000000 y =   0.00000000 z =  -0.11272947

 moments of inertia (a.u.)
 ------------------
       51462.289952539009           0.000000000000           0.000000000000
           0.000000000000          25.020403917173           0.000000000000
           0.000000000000           0.000000000000       51469.719337134564

  Mulliken analysis of the total density
  --------------------------------------

    Atom       Charge   Shell Charges
 -----------   ------   -------------------------------------------------------
    1 H    1     0.78   0.60  0.12  0.06
    2 H    1     0.78   0.60  0.12  0.06
    3 O    8     8.44   2.00  0.85  0.94  2.71  1.93  0.01
    4 H    1     0.78   0.60  0.12  0.06
    5 H    1     0.78   0.60  0.12  0.06
    6 O    8     8.44   2.00  0.85  0.94  2.71  1.93  0.01
    7 H    1     0.78   0.60  0.12  0.06
    8 H    1     0.78   0.60  0.12  0.06
    9 O    8     8.44   2.00  0.85  0.94  2.71  1.93  0.01

       Multipole analysis of the density wrt the origin
       ------------------------------------------------

     L   x y z        total         open         nuclear
     -   - - -        -----         ----         -------
     0   0 0 0     -0.000000      0.000000     30.000000

     1   1 0 0     -0.000000      0.000000      0.000000
     1   0 1 0     -0.000000      0.000000      0.000000
     1   0 0 1      2.568614      0.000000      0.000000

     2   2 0 0     -8.564371      0.000000     16.098920
     2   1 1 0      0.000000      0.000000      0.000000
     2   1 0 1     -0.000000      0.000000      0.000000
     2   0 2 0    -16.396263      0.000000  28568.514495
     2   0 1 1      0.000000      0.000000      0.000000
     2   0 0 2    -13.162895      0.000000      7.861606


 Parallel integral file used       4 records with       0 large values

                   NWChem MP2 Semi-direct Energy/Gradient Module
                   ---------------------------------------------


                                        H2O


  Basis functions       =     72
  Molecular orbitals    =     72
  Frozen core           =      0
  Frozen virtuals       =      0
  Active alpha occupied =     15
  Active beta occupied  =     15
  Active alpha virtual  =     57
  Active beta virtual   =     57
  Use MO symmetry       = T
  Use skeleton AO sym   = T

  AO/Fock/Back tols     =   1.0D-09  1.0D-09  1.0D-09
  avail0,avail1,avail0-avail1                307334               307334                    0
  avail0,avail1,avail0-avail1                307334               307334                    0
  avail0,avail1,avail0-avail1                307334               307349                  -15
  avail0,avail1,avail0-avail1                307334               307349                  -15

 GA uses MA = F    GA memory limited = T

 Available: 
  local mem=  1.34D+08
 global mem=  1.34D+08
 local disk=  6.29D+08
  mp2_memr nvloc                    15
  nvloc new                    15
   1 passes of  15:         711867                      24446                    697442.

 Semi-direct pass number   1 of   1  for RHF alpha+beta  at        0.3s
  vrange nnbf                   900
Node 0 wrote      1.6 Mb in      0.0 s     Agg I/O rate:   561.5 Mb/s
 Done moints_semi at        0.4s
 Done maket at        0.4s
 Done multipass loop at        0.4s


          -------------------------------------------
          SCF energy                -227.969358383864
          Correlation energy          -0.643047091976
          Singlet pairs               -0.404246923774
          Triplet pairs               -0.238800168202
          Total MP2 energy          -228.612405475840
          -------------------------------------------



          ---------------------------------------------------
                    Spin Component Scaled (SCS) MP2
          Same spin pairs                     -0.159200112135
          Same spin scaling factor             0.333333333333
          Opposite spin pairs                 -0.483846979841
          Opposite spin scaling fact.          1.200000000000
          SCS-MP2 correlation energy          -0.633683079854
          Total SCS-MP2 energy              -228.603041463719
          ---------------------------------------------------

 -----------------------
 Performance information
 -----------------------

 Timer overhead =  1.16D-07 seconds/call

               Nr. of calls         CPU time (s)                 Wall time (s)                GFlops
             ---------------    -------------------     ------------------------------   -------------------
Name         Min   Avg   Max    Min     Avg     Max     Min     Avg     Max   Mx/calls   Min     Max     Sum
mp2: moin     1     1     1   0.14    0.14    0.14     0.14    0.14    0.14    0.14      0.0     0.0     0.0   
mp2: make     1     1     1   2.34E-2 2.34E-2 2.35E-2  2.34E-2 2.34E-2 2.35E-2 2.35E-2   0.0     0.0     0.0   
mp2: tota     1     1     1   0.18    0.18    0.18     0.18    0.18    0.18    0.18      0.0     0.0     0.0   

 The average no. of pstat calls per process was 3.00D+00
 with a timing overhead of 3.48D-07s


 Task  times  cpu:        0.4s     wall:        0.4s


                                NWChem Input Module
                                -------------------


 Summary of allocated global arrays
-----------------------------------
  No active global arrays


MA_summarize_allocated_blocks: starting scan ...
MA_summarize_allocated_blocks: scan completed: 0 heap blocks, 0 stack blocks
MA usage statistics:

	allocation statistics:
					      heap	     stack
					      ----	     -----
	current number of blocks	         0	         0
	maximum number of blocks	        18	        22
	current total bytes		         0	         0
	maximum total bytes		   5798920	  22510888
	maximum total K-bytes		      5799	     22511
	maximum total M-bytes		         6	        23


                                     CITATION
                                     --------
                Please cite the following reference when publishing
                           results obtained with NWChem:

          E. Apra, E. J. Bylaska, W. A. de Jong, N. Govind, K. Kowalski,
       T. P. Straatsma, M. Valiev, H. J. J. van Dam, Y. Alexeev, J. Anchell,
       V. Anisimov, F. W. Aquino, R. Atta-Fynn, J. Autschbach, N. P. Bauman,
     J. C. Becca, D. E. Bernholdt, K. Bhaskaran-Nair, S. Bogatko, P. Borowski,
         J. Boschen, J. Brabec, A. Bruner, E. Cauet, Y. Chen, G. N. Chuev,
      C. J. Cramer, J. Daily, M. J. O. Deegan, T. H. Dunning Jr., M. Dupuis,
   K. G. Dyall, G. I. Fann, S. A. Fischer, A. Fonari, H. Fruchtl, L. Gagliardi,
      J. Garza, N. Gawande, S. Ghosh, K. Glaesemann, A. W. Gotz, J. Hammond,
       V. Helms, E. D. Hermes, K. Hirao, S. Hirata, M. Jacquelin, L. Jensen,
   B. G. Johnson, H. Jonsson, R. A. Kendall, M. Klemm, R. Kobayashi, V. Konkov,
      S. Krishnamoorthy, M. Krishnan, Z. Lin, R. D. Lins, R. J. Littlefield,
      A. J. Logsdail, K. Lopata, W. Ma, A. V. Marenich, J. Martin del Campo,
   D. Mejia-Rodriguez, J. E. Moore, J. M. Mullin, T. Nakajima, D. R. Nascimento,
    J. A. Nichols, P. J. Nichols, J. Nieplocha, A. Otero-de-la-Roza, B. Palmer,
    A. Panyala, T. Pirojsirikul, B. Peng, R. Peverati, J. Pittner, L. Pollack,
   R. M. Richard, P. Sadayappan, G. C. Schatz, W. A. Shelton, D. W. Silverstein,
   D. M. A. Smith, T. A. Soares, D. Song, M. Swart, H. L. Taylor, G. S. Thomas,
            V. Tipparaju, D. G. Truhlar, K. Tsemekhman, T. Van Voorhis,
      A. Vazquez-Mayagoitia, P. Verma, O. Villa, A. Vishnu, K. D. Vogiatzis,
        D. Wang, J. H. Weare, M. J. Williamson, T. L. Windus, K. Wolinski,
        A. T. Wong, Q. Wu, C. Yang, Q. Yu, M. Zacharias, Z. Zhang, Y. Zhao,
                                and R. J. Harrison
                        "NWChem: Past, present, and future
                         J. Chem. Phys. 152, 184102 (2020)
                               doi:10.1063/5.0004997

                                      AUTHORS
                                      -------
  E. Apra, E. J. Bylaska, N. Govind, K. Kowalski, M. Valiev, D. Mejia-Rodriguez,
       A. Kunitsa, N. P. Bauman, A. Panyala, W. A. de Jong, T. P. Straatsma,
   H. J. J. van Dam, D. Wang, T. L. Windus, J. Hammond, J. Autschbach, A. Woods,
    K. Bhaskaran-Nair, J. Brabec, K. Lopata, S. A. Fischer, S. Krishnamoorthy,
     M. Jacquelin, W. Ma, M. Klemm, O. Villa, Y. Chen, V. Anisimov, F. Aquino,
     S. Hirata, M. T. Hackler, E. Hermes, L. Jensen, J. E. Moore, J. C. Becca,
      V. Konjkov, T. Risthaus, M. Malagoli, A. Marenich, A. Otero-de-la-Roza,
        J. Mullin, P. Nichols, R. Peverati, J. Pittner, Y. Zhao, P.-D. Fan,
        A. Fonari, M. J. Williamson, R. J. Harrison, J. R. Rehr, M. Dupuis,
     D. Silverstein, D. M. A. Smith, J. Nieplocha, V. Tipparaju, M. Krishnan,
     B. E. Van Kuiken, A. Vazquez-Mayagoitia, M. Swart, Q. Wu, T. Van Voorhis,
     A. A. Auer, M. Nooijen, L. D. Crosby, E. Brown, G. Cisneros, G. I. Fann,
   H. Fruchtl, J. Garza, K. Hirao, R. A. Kendall, J. A. Nichols, K. Tsemekhman,
    K. Wolinski, J. Anchell, D. E. Bernholdt, P. Borowski, T. Clark, D. Clerc,
   H. Dachsel, M. J. O. Deegan, K. Dyall, D. Elwood, E. Glendening, M. Gutowski,
   A. C. Hess, J. Jaffe, B. G. Johnson, J. Ju, R. Kobayashi, R. Kutteh, Z. Lin,
   R. Littlefield, X. Long, B. Meng, T. Nakajima, S. Niu, L. Pollack, M. Rosing,
   K. Glaesemann, G. Sandrone, M. Stave, H. Taylor, G. Thomas, J. H. van Lenthe,
                               A. T. Wong, Z. Zhang.

 Total times  cpu:        0.5s     wall:        0.5s
