 argument  1 = H2_5.1/H2_5.1.nw



============================== echo of input deck ==============================
echo

start molecule

title "H2"
charge 0

memory total 2 gb

geometry units angstrom noautoz
symmetry group d2h
H 0.00000 0.00000 5.1
end

basis spherical
 * library aug-cc-pVDZ
end

tce
 cisd
 maxiter 6000
end

task tce energy
================================================================================


                                         
                                         


             Northwest Computational Chemistry Package (NWChem) 7.2.2
             --------------------------------------------------------


                    Environmental Molecular Sciences Laboratory
                       Pacific Northwest National Laboratory
                                Richland, WA 99352

                              Copyright (c) 1994-2022
                       Pacific Northwest National Laboratory
                            Battelle Memorial Institute

             NWChem is an open-source computational chemistry package
                        distributed under the terms of the
                      Educational Community License (ECL) 2.0
             A copy of the license is included with this distribution
                              in the LICENSE.TXT file

                                  ACKNOWLEDGMENT
                                  --------------

            This software and its documentation were developed at the
            EMSL at Pacific Northwest National Laboratory, a multiprogram
            national laboratory, operated for the U.S. Department of Energy
            by Battelle under Contract Number DE-AC05-76RL01830. Support
            for this work was provided by the Department of Energy Office
            of Biological and Environmental Research, Office of Basic
            Energy Sciences, and the Office of Advanced Scientific Computing.


           Job information
           ---------------

    hostname        = Eliass-MacBook-Air.local
    program         = nwchem
    date            = Wed Feb 28 14:15:56 2024

    compiled        = Sun_Dec_10_10:51:21_2023
    source          = /private/tmp/nwchem-20231210-5888-3uvdjr/nwchem-7.2.2
    nwchem branch   = 7.2.2
    nwchem revision = 74936fb9
    ga revision     = 5.8.0
    use scalapack   = T
    input           = H2_5.1/H2_5.1.nw
    prefix          = molecule.
    data base       = ./molecule.db
    status          = startup
    nproc           =        4
    time left       =     -1s



           Memory information
           ------------------

    heap     =   67108860 doubles =    512.0 Mbytes
    stack    =   67108865 doubles =    512.0 Mbytes
    global   =  134217728 doubles =   1024.0 Mbytes (distinct from heap & stack)
    total    =  268435453 doubles =   2048.0 Mbytes
    verify   = yes
    hardfail = no 


           Directory information
           ---------------------

  0 permanent = .
  0 scratch   = .




                                NWChem Input Module
                                -------------------


                                        H2
                                        --

 Scaling coordinates for geometry "geometry" by  1.889725989
 (inverse scale =  0.529177249)



                             Geometry "geometry" -> ""
                             -------------------------

 Output coordinates in angstroms (scale by  1.889725989 to convert to a.u.)

  No.       Tag          Charge          X              Y              Z
 ---- ---------------- ---------- -------------- -------------- --------------
    1 H                    1.0000     0.00000000     0.00000000     5.10000000
    2 H                    1.0000     0.00000000     0.00000000    -5.10000000

      Atomic Mass 
      ----------- 

      H                  1.007825


 Effective nuclear repulsion energy (a.u.)       0.0518801225

            Nuclear Dipole moment (a.u.) 
            ----------------------------
        X                 Y               Z
 ---------------- ---------------- ----------------
     0.0000000000     0.0000000000     0.0000000000

      Symmetry information
      --------------------

 Group name             D2h       
 Group number             26
 Group order               8
 No. of unique centers     1

      Symmetry unique atoms

     1


            XYZ format geometry
            -------------------
     2
 geometry
 H                     0.00000000     0.00000000     5.10000000
 H                     0.00000000     0.00000000    -5.10000000

  library name resolved from: .nwchemrc
  library file name is: </opt/homebrew/Cellar/nwchem/7.2.2/share/nwchem/libraries/>
  


 Summary of "ao basis" -> "" (spherical)
 ------------------------------------------------------------------------------
       Tag                 Description            Shells   Functions and Types
 ---------------- ------------------------------  ------  ---------------------
 *                        aug-cc-pVDZ                 on all atoms 


                      Basis "ao basis" -> "ao basis" (spherical)
                      -----
  H (Hydrogen)
  ------------
            Exponent  Coefficients 
       -------------- ---------------------------------------------------------
  1 S  1.30100000E+01  0.019685
  1 S  1.96200000E+00  0.137977
  1 S  4.44600000E-01  0.478148

  2 S  1.22000000E-01  1.000000

  3 S  2.97400000E-02  1.000000

  4 P  7.27000000E-01  1.000000

  5 P  1.41000000E-01  1.000000



 Summary of "ao basis" -> "ao basis" (spherical)
 ------------------------------------------------------------------------------
       Tag                 Description            Shells   Functions and Types
 ---------------- ------------------------------  ------  ---------------------
 H                        aug-cc-pVDZ                5        9   3s2p


                                 NWChem SCF Module
                                 -----------------


                                        H2



  ao basis        = "ao basis"
  functions       =    18
  atoms           =     2
  closed shells   =     1
  open shells     =     0
  charge          =   0.00
  wavefunction    = RHF 
  input vectors   = atomic
  output vectors  = ./molecule.movecs
  use symmetry    = T
  symmetry adapt  = T


 Summary of "ao basis" -> "ao basis" (spherical)
 ------------------------------------------------------------------------------
       Tag                 Description            Shells   Functions and Types
 ---------------- ------------------------------  ------  ---------------------
 H                        aug-cc-pVDZ                5        9   3s2p


      Symmetry analysis of basis
      --------------------------

        ag          5
        au          0
        b1g         0
        b1u         5
        b2g         2
        b2u         2
        b3g         2
        b3u         2


 Forming initial guess at       0.0s


      Superposition of Atomic Density Guess
      -------------------------------------

 Sum of atomic energies:          -0.99866926

      Non-variational initial energy
      ------------------------------

 Total energy =      -0.687057
 1-e energy   =      -1.102429
 2-e energy   =       0.363492
 HOMO         =      -0.199819
 LUMO         =      -0.199819


 !!!!!!!!!!!!!!!!!!!!!!!!!!!!!!!!!!!!!!!!!!!!!!!!!!!!!!!!!!!!!!!!!!!!!!
 Warning - the HOMO and LUMO are degenerate and you are using symmetry.
 This can lead to non-variational energies and poor convergence.
 Modify the initial guess, or use an open-shell wavefunction, or turn
 off symmetry.
 !!!!!!!!!!!!!!!!!!!!!!!!!!!!!!!!!!!!!!!!!!!!!!!!!!!!!!!!!!!!!!!!!!!!!!


      Symmetry analysis of molecular orbitals - initial
      -------------------------------------------------


 !! scf_movecs_sym_adapt:    8 vectors were symmetry contaminated

  Symmetry fudging

 !! scf_movecs_sym_adapt:    8 vectors were symmetry contaminated

  Numbering of irreducible representations: 

     1 ag          2 au          3 b1g         4 b1u         5 b2g     
     6 b2u         7 b3g         8 b3u     

  Orbital symmetries:

     1 b1u         2 ag          3 ag          4 b1u         5 b3u     
     6 b2u         7 b3g         8 b2g         9 ag         10 b1u     
    11 ag      


 Starting SCF solution at       0.0s



 ----------------------------------------------
         Quadratically convergent ROHF

 Convergence threshold     :          1.000E-04
 Maximum no. of iterations :           30
 Final Fock-matrix accuracy:          1.000E-07
 ----------------------------------------------


 #quartets = 4.990D+02 #integrals = 1.268D+03 #direct =  0.0% #cached =100.0%


 Integral file          = ./molecule.aoints.0
 Record size in doubles =  65536        No. of integs per rec  =  43688
 Max. records in memory =      3        Max. records in file   = 159213
 No. of bits per label  =      8        No. of bits per value  =     64


File balance: exchanges=     0  moved=     0  time=   0.0


              iter       energy          gnorm     gmax       time
             ----- ------------------- --------- --------- --------
                 1       -0.7397480172  2.97D-02  2.38D-02      0.0
                 2       -0.7400708557  3.29D-04  3.14D-04      0.0
                 3       -0.7400709059  4.16D-07  3.74D-07      0.0


       Final RHF  results 
       ------------------ 

         Total SCF energy =     -0.740070905907
      One-electron energy =     -1.074813977756
      Two-electron energy =      0.282862949398
 Nuclear repulsion energy =      0.051880122451

        Time for solution =      0.0s



       Symmetry analysis of molecular orbitals - final
       -----------------------------------------------

  Numbering of irreducible representations: 

     1 ag          2 au          3 b1g         4 b1u         5 b2g     
     6 b2u         7 b3g         8 b3u     

  Orbital symmetries:

     1 b1u         2 ag          3 ag          4 b1u         5 b1u     
     6 b3g         7 b2g         8 b2u         9 b3u        10 ag      
    11 ag      

             Final eigenvalues
             -----------------

              1      
    1   -0.2545
    2   -0.2026
    3    0.0828
    4    0.0856
    5    0.2856
    6    0.2857
    7    0.2857
    8    0.2859
    9    0.2859
   10    0.2860
   11    0.7413

                       ROHF Final Molecular Orbital Analysis
                       -------------------------------------

 Vector    1  Occ=2.000000D+00  E=-2.545440D-01  Symmetry=b1u
              MO Center= -2.4D-21,  3.2D-21,  6.6D-12, r^2= 2.7D+01
   Bfn.  Coefficient  Atom+Function         Bfn.  Coefficient  Atom+Function  
  ----- ------------  ---------------      ----- ------------  ---------------
     2      0.372907  1 H  s                 11     -0.372907  2 H  s          
     1      0.316709  1 H  s                 10     -0.316709  2 H  s          

 Vector    2  Occ=0.000000D+00  E=-2.026404D-01  Symmetry=ag
              MO Center= -1.1D-19, -7.0D-19, -6.6D-12, r^2= 2.7D+01
   Bfn.  Coefficient  Atom+Function         Bfn.  Coefficient  Atom+Function  
  ----- ------------  ---------------      ----- ------------  ---------------
     2      0.373036  1 H  s                 11      0.373036  2 H  s          
     1      0.316667  1 H  s                 10      0.316667  2 H  s          

 Vector    3  Occ=0.000000D+00  E= 8.282846D-02  Symmetry=ag
              MO Center=  5.9D-36,  4.4D-35,  7.5D-16, r^2= 3.6D+01
   Bfn.  Coefficient  Atom+Function         Bfn.  Coefficient  Atom+Function  
  ----- ------------  ---------------      ----- ------------  ---------------
     3      0.950940  1 H  s                 12      0.950940  2 H  s          
     2     -0.576223  1 H  s                 11     -0.576223  2 H  s          

 Vector    4  Occ=0.000000D+00  E= 8.558582D-02  Symmetry=b1u
              MO Center= -4.3D-33, -4.7D-34, -3.0D-15, r^2= 3.6D+01
   Bfn.  Coefficient  Atom+Function         Bfn.  Coefficient  Atom+Function  
  ----- ------------  ---------------      ----- ------------  ---------------
     3      0.956985  1 H  s                 12     -0.956985  2 H  s          
     2     -0.577398  1 H  s                 11      0.577398  2 H  s          

 Vector    5  Occ=0.000000D+00  E= 2.855697D-01  Symmetry=b1u
              MO Center=  7.4D-35,  4.8D-36,  3.5D-15, r^2= 2.9D+01
   Bfn.  Coefficient  Atom+Function         Bfn.  Coefficient  Atom+Function  
  ----- ------------  ---------------      ----- ------------  ---------------
     9      0.715387  1 H  pz                18      0.715387  2 H  pz         

 Vector    6  Occ=0.000000D+00  E= 2.856729D-01  Symmetry=b3g
              MO Center= -6.6D-59, -3.2D-21,  2.9D-17, r^2= 2.9D+01
   Bfn.  Coefficient  Atom+Function         Bfn.  Coefficient  Atom+Function  
  ----- ------------  ---------------      ----- ------------  ---------------
     8      0.715396  1 H  py                17     -0.715396  2 H  py         

 Vector    7  Occ=0.000000D+00  E= 2.856729D-01  Symmetry=b2g
              MO Center=  2.4D-21,  7.3D-51, -1.3D-15, r^2= 2.9D+01
   Bfn.  Coefficient  Atom+Function         Bfn.  Coefficient  Atom+Function  
  ----- ------------  ---------------      ----- ------------  ---------------
     7      0.715396  1 H  px                16     -0.715396  2 H  px         

 Vector    8  Occ=0.000000D+00  E= 2.858682D-01  Symmetry=b2u
              MO Center= -3.7D-56,  7.2D-19,  3.8D-17, r^2= 2.9D+01
   Bfn.  Coefficient  Atom+Function         Bfn.  Coefficient  Atom+Function  
  ----- ------------  ---------------      ----- ------------  ---------------
     8      0.715401  1 H  py                17      0.715401  2 H  py         

 Vector    9  Occ=0.000000D+00  E= 2.858682D-01  Symmetry=b3u
              MO Center=  1.1D-19,  1.7D-58,  1.6D-15, r^2= 2.9D+01
   Bfn.  Coefficient  Atom+Function         Bfn.  Coefficient  Atom+Function  
  ----- ------------  ---------------      ----- ------------  ---------------
     7      0.715401  1 H  px                16      0.715401  2 H  px         

 Vector   10  Occ=0.000000D+00  E= 2.859802D-01  Symmetry=ag
              MO Center= -1.1D-34, -4.2D-40,  3.3D-15, r^2= 2.9D+01
   Bfn.  Coefficient  Atom+Function         Bfn.  Coefficient  Atom+Function  
  ----- ------------  ---------------      ----- ------------  ---------------
     9      0.715401  1 H  pz                18     -0.715401  2 H  pz         

 Vector   11  Occ=0.000000D+00  E= 7.412515D-01  Symmetry=ag
              MO Center= -2.8D-33, -6.1D-34,  5.0D-16, r^2= 2.9D+01
   Bfn.  Coefficient  Atom+Function         Bfn.  Coefficient  Atom+Function  
  ----- ------------  ---------------      ----- ------------  ---------------
     2      1.213214  1 H  s                 11      1.213214  2 H  s          
     1     -0.980040  1 H  s                 10     -0.980040  2 H  s          
     3     -0.461990  1 H  s                 12     -0.461990  2 H  s          


 center of mass
 --------------
 x =   0.00000000 y =   0.00000000 z =   0.00000000

 moments of inertia (a.u.)
 ------------------
         187.220390445883           0.000000000000           0.000000000000
           0.000000000000         187.220390445883           0.000000000000
           0.000000000000           0.000000000000           0.000000000000

  Mulliken analysis of the total density
  --------------------------------------

    Atom       Charge   Shell Charges
 -----------   ------   -------------------------------------------------------
    1 H    1     1.00   0.39  0.50  0.11 -0.00  0.00
    2 H    1     1.00   0.39  0.50  0.11 -0.00  0.00

       Multipole analysis of the density wrt the origin
       ------------------------------------------------

     L   x y z        total         open         nuclear
     -   - - -        -----         ----         -------
     0   0 0 0     -0.000000      0.000000      2.000000

     1   1 0 0      0.000000      0.000000      0.000000
     1   0 1 0     -0.000000      0.000000      0.000000
     1   0 0 1     -0.000000      0.000000      0.000000

     2   2 0 0     -3.213229      0.000000      0.000000
     2   1 1 0      0.000000      0.000000      0.000000
     2   1 0 1     -0.000000      0.000000      0.000000
     2   0 2 0     -3.213229      0.000000      0.000000
     2   0 1 1     -0.000000      0.000000      0.000000
     2   0 0 2     -2.888926      0.000000    185.766766


 Parallel integral file used       4 records with       0 large values

                   NWChem Extensible Many-Electron Theory Module
                   ---------------------------------------------

              ======================================================
                   This portion of the program was automatically
                  generated by a Tensor Contraction Engine (TCE).
                  The development of this portion of the program
                 and TCE was supported by US Department of Energy,
                Office of Science, Office of Basic Energy Science.
                      TCE is a product of Battelle and PNNL.
              Please cite: S.Hirata, J.Phys.Chem.A 107, 9887 (2003).
              ======================================================

                                        H2


            General Information
            -------------------
      Number of processors :     4
         Wavefunction type : Restricted Hartree-Fock
          No. of electrons :     2
           Alpha electrons :     1
            Beta electrons :     1
           No. of orbitals :    36
            Alpha orbitals :    18
             Beta orbitals :    18
        Alpha frozen cores :     0
         Beta frozen cores :     0
     Alpha frozen virtuals :     0
      Beta frozen virtuals :     0
         Spin multiplicity : singlet 
    Number of AO functions :    18
       Number of AO shells :    10
        Use of symmetry is : on 
      Symmetry adaption is : on 
         Schwarz screening : 0.10D-09

          Correlation Information
          -----------------------
          Calculation type : Configuration interaction singles & doubles                 
   Perturbative correction : none                                                        
            Max iterations :     6000
        Residual threshold : 0.10D-06
     T(0) DIIS level shift : 0.00D+00
     L(0) DIIS level shift : 0.00D+00
     T(1) DIIS level shift : 0.00D+00
     L(1) DIIS level shift : 0.00D+00
     T(R) DIIS level shift : 0.00D+00
     T(I) DIIS level shift : 0.00D+00
   CC-T/L Amplitude update :  5-th order DIIS
                I/O scheme : Global Array Library
        L-threshold :  0.10D-06
        EOM-threshold :  0.10D-06
 no EOMCCSD initial starts read in
 TCE RESTART OPTIONS
 READ_INT:   F
 WRITE_INT:  F
 READ_TA:    F
 WRITE_TA:   F
 READ_XA:    F
 WRITE_XA:   F
 READ_IN3:   F
 WRITE_IN3:  F
 SLICE:      F
 D4D5:       F
 quantumc:   F
 qrotation:  F
 pwtce:      F
 qducc:      F
 nacto:                         0
 nrotv:                         0
 nrot:                          0

            Memory Information
            ------------------
          Available GA space size is     536870588 doubles
          Available MA space size is     134216828 doubles

 Maximum block size        32 doubles

 tile_dim =      5

 Block   Spin    Irrep     Size     Offset   Alpha
 -------------------------------------------------
   1    alpha     b1u    1 doubles       0       1
   2    beta      b1u    1 doubles       1       1
   3    alpha     ag     5 doubles       2       3
   4    alpha     b1u    4 doubles       7       4
   5    alpha     b2g    2 doubles      11       5
   6    alpha     b2u    2 doubles      13       6
   7    alpha     b3g    2 doubles      15       7
   8    alpha     b3u    2 doubles      17       8
   9    beta      ag     5 doubles      19       3
  10    beta      b1u    4 doubles      24       4
  11    beta      b2g    2 doubles      28       5
  12    beta      b2u    2 doubles      30       6
  13    beta      b3g    2 doubles      32       7
  14    beta      b3u    2 doubles      34       8

 Global array virtual files algorithm will be used

 Parallel file system coherency ......... OK
  avail0,avail1,avail0-avail1                335176               335176                    0
  avail0,avail1,avail0-avail1                335176               335176                    0
  avail0,avail1,avail0-avail1                335176               335191                  -15
  avail0,avail1,avail0-avail1                335176               335191                  -15

 #quartets = 8.680D+02 #integrals = 1.858D+03 #direct =  0.0% #cached =100.0%


 Integral file          = ./molecule.aoints.0
 Record size in doubles =  65536        No. of integs per rec  =  43688
 Max. records in memory =      3        Max. records in file   =   9949
 No. of bits per label  =      8        No. of bits per value  =     64


File balance: exchanges=     0  moved=     0  time=   0.0


 Fock matrix recomputed
 1-e file size   =               66
 1-e file name   = ./molecule.f1
 Cpu & wall time / sec            0.0            0.0

 tce_ao2e: fast2e=1
 half-transformed integrals in memory

 2-e (intermediate) file size =          228744
 2-e (intermediate) file name = ./molecule.v2i
 Cpu & wall time / sec            0.0            0.0

 tce_mo2e: fast2e=1
 2-e integrals stored in memory

 2-e file size   =            22285
 2-e file name   = ./molecule.v2
 Cpu & wall time / sec            0.0            0.0
 T1-number-of-tasks                    1

 t1 file size   =                4
 t1 file name   = ./molecule.t1
 t1 file handle =       -999
 T2-number-of-boxes                   12

 t2 file size   =              114
 t2 file name   = ./molecule.t2
 t2 file handle =       -996

 CISD iterations
 --------------------------------------------------------
 Iter          Residuum       Correlation     Cpu    Wall
 --------------------------------------------------------
    1   1.1060698693496  -0.5497633172403     0.0     0.0
    2  12.8251869963994   1.7456415346650     0.0     0.0
    33887.2516510316896  29.8862763042233     0.0     0.0
    4******************8670.5802888803173     0.0     0.0
    5************************************     0.0     0.0
 MICROCYCLE DIIS UPDATE:                    5                    5
    6   0.2575896881130   0.0032805010941     0.0     0.0
    7   1.0300304532577  -0.5365462013785     0.0     0.0
    8  10.2535291343898   1.5655394854315     0.0     0.0
    92506.2755683938913  23.9968103872064     0.0     0.0
   10******************5595.2695411510658     0.0     0.0
 MICROCYCLE DIIS UPDATE:                   10                    5
   11   0.2322395280771  -0.0671292467232     0.0     0.0
   12   1.1927575621187  -0.5781983362516     0.0     0.0
   13  16.1691053580399   1.9566764465633     0.0     0.0
   146133.0234446181048  37.5630093777957     0.0     0.0
   15************************************     0.0     0.0
 MICROCYCLE DIIS UPDATE:                   15                    5
   16   0.2222267342647  -0.0883686333835     0.0     0.0
   17   1.1852224617970  -0.5782073870727     0.0     0.0
   18  16.1361509313602   1.9538649454963     0.0     0.0
   196108.1878354082619  37.4846728713511     0.0     0.0
   20************************************     0.0     0.0
 MICROCYCLE DIIS UPDATE:                   20                    5
   21   0.2085767112582  -0.1087350231124     0.0     0.0
   22   1.1354835708710  -0.5692269040871     0.0     0.0
   23  14.6823692812807   1.8638287406099     0.0     0.0
   245073.5446671569198  34.1547561028346     0.0     0.0
   25************************************     0.0     0.0
 MICROCYCLE DIIS UPDATE:                   25                    5
   26   0.1928857101124  -0.1274963361187     0.0     0.0
   27   1.0569702057195  -0.5537773867463     0.0     0.0
   28  12.4095927535526   1.7142671183255     0.0     0.0
   293645.8353459985583  28.9411892960801     0.0     0.0
   30******************8133.0235701759239     0.0     0.0
 MICROCYCLE DIIS UPDATE:                   30                    5
   31   0.1745300557060  -0.1458581633798     0.0     0.0
   32   0.9516341432520  -0.5318734140060     0.0     0.0
   33   9.6190353852639   1.5107429876830     0.0     0.0
   342210.2964122650533  22.5186490374567     0.0     0.0
   35******************4934.1923489802393     0.0     0.0
 MICROCYCLE DIIS UPDATE:                   35                    5
   36   0.1519845065735  -0.1652084421250     0.0     0.0
   37   0.8142058936293  -0.5015805607434     0.0     0.0
   38   6.5030450504936   1.2446274248263     0.0     0.0
   391023.3118669562531  15.3019095942883     0.0     0.0
   40******************2287.9194646877640     0.0     0.0
 MICROCYCLE DIIS UPDATE:                   40                    5
   41   0.1210884402667  -0.1883358781748     0.0     0.0
   42   0.6236977728793  -0.4561402397255     0.0     0.0
   43   3.2104885619616   0.8781213678702     0.0     0.0
   44 251.6345017684647   7.5605955528945     0.0     0.0
   45****************** 565.3477816512509     0.0     0.0
 MICROCYCLE DIIS UPDATE:                   45                    5
   46   0.0744721590874  -0.2193352146292     0.0     0.0
   47   0.3477355387729  -0.3810643425609     0.0     0.0
   48   0.6409131774828   0.3581168216100     0.0     0.0
   49   4.1500678540843   0.9486973628197     0.0     0.0
   50 431.2776828514682   9.8544684342678     0.0     0.0
 MICROCYCLE DIIS UPDATE:                   50                    5
   51   0.0959048302130  -0.2074497648786     0.0     0.0
   52   0.4841241870444  -0.4203932860731     0.0     0.0
   53   1.5680211288803   0.6128185809928     0.0     0.0
   54  56.1423476869112   3.5478459126728     0.0     0.0
   55****************** 127.4443603161707     0.0     0.0
 MICROCYCLE DIIS UPDATE:                   55                    5
   56   0.0915210245244  -0.2101515686871     0.0     0.0
   57   0.4623922583931  -0.4143596573773     0.0     0.0
   58   1.3701627039630   0.5713364318201     0.0     0.0
   59  41.3493728578003   3.0394259925921     0.0     0.0
   60******************  94.1568148267252     0.0     0.0
 MICROCYCLE DIIS UPDATE:                   60                    5
   61   0.0807633240713  -0.2165056954503     0.0     0.0
   62   0.4002187989234  -0.3967455338205     0.0     0.0
   63   0.9082804877153   0.4546238379471     0.0     0.0
   64  14.5079268043664   1.7874953564479     0.0     0.0
   654925.2062694711867  33.5109717455957     0.0     0.0
 MICROCYCLE DIIS UPDATE:                   65                    5
   66   0.0723007320309  -0.2213715168091     0.0     0.0
   67   0.3521243443004  -0.3826207367099     0.0     0.0
   68   0.6569677284682   0.3651747300285     0.0     0.0
   69   4.6357882450668   1.0030910995650     0.0     0.0
   70 534.0344685167635  10.9743608611544     0.0     0.0
 MICROCYCLE DIIS UPDATE:                   70                    5
   71   0.0705306720289  -0.2224220700445     0.0     0.0
   72   0.3424363683635  -0.3797297997610     0.0     0.0
   73   0.6181841983736   0.3472277228919     0.0     0.0
   74   3.4437333610000   0.8639973488029     0.0     0.0
   75 301.1553868422411   8.2230793794696     0.0     0.0
 MICROCYCLE DIIS UPDATE:                   75                    5
   76   0.0678561715620  -0.2239520723668     0.0     0.0
   77   0.3279406654259  -0.3753411769007     0.0     0.0
   78   0.5676817711277   0.3203961405044     0.0     0.0
   79   2.0450440084390   0.6673135607819     0.0     0.0
   80 111.2691480784756   4.9733476521157     0.0     0.0
 MICROCYCLE DIIS UPDATE:                   80                    5
   81   0.0651477621047  -0.2254782072837     0.0     0.0
   82   0.3132726636970  -0.3708496182668     0.0     0.0
   83   0.5256528048785   0.2933333120814     0.0     0.0
   84   1.0387145944550   0.4827699077219     0.0     0.0
   85  31.1573385301639   2.6073048937100     0.0     0.0
 MICROCYCLE DIIS UPDATE:                   85                    5
   86   0.0623204218518  -0.2270509241124     0.0     0.0
   87   0.2981022772147  -0.3661458695616     0.0     0.0
   88   0.4912442968433   0.2654177042523     0.0     0.0
   89   0.3615961484929   0.3069318982506     0.0     0.0
   90   4.4661294822515   0.9687201451789     0.0     0.0
 MICROCYCLE DIIS UPDATE:                   90                    5
   91   0.0580782271591  -0.2293713222618     0.0     0.0
   92   0.2756409669453  -0.3590648963155     0.0     0.0
   93   0.4551827941091   0.2242217278991     0.0     0.0
   94   0.2157236320720   0.0743559958118     0.0     0.0
   95   0.3452584028042  -0.2742173713453     0.0     0.0
 MICROCYCLE DIIS UPDATE:                   95                    5
   96   0.0683505271794  -0.2237862425148     0.0     0.0
   97   0.3304392612833  -0.3761474555119     0.0     0.0
   98   0.5757495197194   0.3250667109092     0.0     0.0
   99   2.2597079630772   0.7008231735251     0.0     0.0
  100 134.5144412235628   5.4741623332009     0.0     0.0
 MICROCYCLE DIIS UPDATE:                  100                    5
  101   0.0640416799673  -0.2261637670756     0.0     0.0
  102   0.3069149967219  -0.3689227613217     0.0     0.0
  103   0.5101432069959   0.2817068079757     0.0     0.0
  104   0.7159866719007   0.4079713334113     0.0     0.0
  105  15.6691694731436   1.8369238275877     0.0     0.0
 MICROCYCLE DIIS UPDATE:                  105                    5
  106   0.0619231004856  -0.2273286198807     0.0     0.0
  107   0.2956873653847  -0.3654228414116     0.0     0.0
  108   0.4865289259173   0.2610457744449     0.0     0.0
  109   0.2874207264375   0.2809016348747     0.0     0.0
  110   2.8886796445335   0.7773396658509     0.0     0.0
 MICROCYCLE DIIS UPDATE:                  110                    5
  111   0.0579528568493  -0.2294846153072     0.0     0.0
  112   0.2747725589550  -0.3588154490411     0.0     0.0
  113   0.4540385158880   0.2226881846408     0.0     0.0
  114   0.2242059210513   0.0664538354237     0.0     0.0
  115   0.3656807525354  -0.2978921422439     0.0     0.0
 MICROCYCLE DIIS UPDATE:                  115                    5
  116   0.0640778234649  -0.2261766079515     0.0     0.0
  117   0.3071806731113  -0.3690135814222     0.0     0.0
  118   0.5107390979454   0.2821868735906     0.0     0.0
  119   0.7282598332142   0.4110411687277     0.0     0.0
  120  16.1662815917712   1.8664230173938     0.0     0.0
 MICROCYCLE DIIS UPDATE:                  120                    5
  121   0.0605857151491  -0.2280787548944     0.0     0.0
  122   0.2884350202534  -0.3631584280375     0.0     0.0
  123   0.4736596450535   0.2477622306624     0.0     0.0
  124   0.1332742549416   0.2035679084041     0.0     0.0
  125   0.3143894977867   0.2863422528923     0.0     0.0
 MICROCYCLE DIIS UPDATE:                  125                    5
  126   0.0532114802369  -0.2320378497963     0.0     0.0
  127   0.2499775618772  -0.3508409225784     0.0     0.0
  128   0.4303386938635   0.1774688883729     0.0     0.0
  129   0.3450062692701  -0.1504975502819     0.0     0.0
  130   0.6887861362181  -0.4727354141150     0.0     0.0
 MICROCYCLE DIIS UPDATE:                  130                    5
  131   0.0403663297868  -0.2387422052417     0.0     0.0
  132   0.1842835196738  -0.3288824080684     0.0     0.0
  133   0.3944833745909   0.0591484896283     0.0     0.0
  134   1.0348192861574  -0.5347871406982     0.0     0.0
  135   9.1714232344901   1.4860611636257     0.0     0.0
 MICROCYCLE DIIS UPDATE:                  135                    5
  136   0.0367732032731  -0.2405932923569     0.0     0.0
  137   0.1666112208496  -0.3227377352718     0.0     0.0
  138   0.3816387266835   0.0276514560632     0.0     0.0
  139   1.2800974444762  -0.5924850330216     0.0     0.0
  140  17.3799978665469   2.0349130022522     0.0     0.0
 MICROCYCLE DIIS UPDATE:                  140                    5
  141   0.0340587072247  -0.2419705695164     0.0     0.0
  142   0.1533012055472  -0.3180445118966     0.0     0.0
  143   0.3693805820449   0.0040815396033     0.0     0.0
  144   1.4244914193119  -0.6233788625861     0.0     0.0
  145  23.4327565062774   2.3579477424106     0.0     0.0
 MICROCYCLE DIIS UPDATE:                  145                    5
  146   0.0331131530551  -0.2424504236263     0.0     0.0
  147   0.1486983910662  -0.3164082791343     0.0     0.0
  148   0.3645446755355  -0.0040435504767     0.0     0.0
  149   1.4641944229823  -0.6315918362377     0.0     0.0
  150  25.2736467280016   2.4475670109703     0.0     0.0
 MICROCYCLE DIIS UPDATE:                  150                    5
  151   0.0320002502624  -0.2430136924602     0.0     0.0
  152   0.1433152425865  -0.3144837550718     0.0     0.0
  153   0.3584760572227  -0.0135341239188     0.0     0.0
  154   1.5033359965187  -0.6396097029334     0.0     0.0
  155  27.1773706475124   2.5367998894522     0.0     0.0
 MICROCYCLE DIIS UPDATE:                  155                    5
  156   0.0307971989874  -0.2436205773353     0.0     0.0
  157   0.1375253627492  -0.3124016310782     0.0     0.0
  158   0.3514308401523  -0.0237227162860     0.0     0.0
  159   1.5362020550945  -0.6463246779391     0.0     0.0
  160  28.8634386444706   2.6131436309342     0.0     0.0
 MICROCYCLE DIIS UPDATE:                  160                    5
  161   0.0295417637523  -0.2442518361124     0.0     0.0
  162   0.1315160981328  -0.3102270800401     0.0     0.0
  163   0.3435298095849  -0.0342759810836     0.0     0.0
  164   1.5598122649642  -0.6512140036334     0.0     0.0
  165  30.1589596061874   2.6701446785875     0.0     0.0
 MICROCYCLE DIIS UPDATE:                  165                    5
  166   0.0282554205862  -0.2448965544615     0.0     0.0
  167   0.1253937377581  -0.3079971877576     0.0     0.0
  168   0.3348429808346  -0.0450049465837     0.0     0.0
  169   1.5725814106243  -0.6540299443016     0.0     0.0
  170  30.9567282317541   2.7044095236763     0.0     0.0
 MICROCYCLE DIIS UPDATE:                  170                    5
  171   0.0269550927029  -0.2455462074773     0.0     0.0
  172   0.1192408048146  -0.3057412391139     0.0     0.0
  173   0.3254465002429  -0.0557636380175     0.0     0.0
  174   1.5737775570321  -0.6546724143770     0.0     0.0
  175  31.2000047084838   2.7143788997905     0.0     0.0
 MICROCYCLE DIIS UPDATE:                  175                    5
  176   0.0256533553501  -0.2461945264548     0.0     0.0
  177   0.1131175630616  -0.3034810510601     0.0     0.0
  178   0.3154162371193  -0.0664461129198     0.0     0.0
  179   1.5633580621496  -0.6531495552081     0.0     0.0
  180  30.8801548122022   2.6999736335153     0.0     0.0
 MICROCYCLE DIIS UPDATE:                  180                    5
  181   0.0243592481660  -0.2468370640069     0.0     0.0
  182   0.1070663782723  -0.3012323564304     0.0     0.0
  183   0.3048249627186  -0.0769784976676     0.0     0.0
  184   1.5417805331120  -0.6495405221749     0.0     0.0
  185  30.0282517748481   2.6621874698819     0.0     0.0
 MICROCYCLE DIIS UPDATE:                  185                    5
  186   0.0230791749540  -0.2474707228779     0.0     0.0
  187   0.1011163829427  -0.2990063458609     0.0     0.0
  188   0.2937415841715  -0.0873105652948     0.0     0.0
  189   1.5098385033993  -0.6439671542651     0.0     0.0
  190  28.7046062973133   2.6027334805734     0.0     0.0
 MICROCYCLE DIIS UPDATE:                  190                    5
  191   0.0218176708515  -0.2480933581822     0.0     0.0
  192   0.0952873904524  -0.2968109859775     0.0     0.0
  193   0.2822313298279  -0.0974087059154     0.0     0.0
  194   1.4685351953837  -0.6365747340886     0.0     0.0
  195  26.9885125379404   2.5237724599360     0.0     0.0
 MICROCYCLE DIIS UPDATE:                  195                    5
  196   0.0205779937124  -0.2487034729886     0.0     0.0
  197   0.0895928769847  -0.2946520374750     0.0     0.0
  198   0.2703563467069  -0.1072505928032     0.0     0.0
  199   1.4189925191581  -0.6275198646404     0.0     0.0
  200  24.9692783057173   2.4277169576311     0.0     0.0
 MICROCYCLE DIIS UPDATE:                  200                    5
  201   0.0193625580208  -0.2492999963919     0.0     0.0
  202   0.0840421459305  -0.2925338033688     0.0     0.0
  203   0.2581764387547  -0.1168213252782     0.0     0.0
  204   1.3623877367355  -0.6169633136024     0.0     0.0
  205  22.7389076052346   2.3170945978204     0.0     0.0
 MICROCYCLE DIIS UPDATE:                  205                    5
  206   0.0181732451900  -0.2498821258249     0.0     0.0
  207   0.0786418585178  -0.2904596649686     0.0     0.0
  208   0.2457498134332  -0.1261107117561     0.0     0.0
  209   1.2999101763052  -0.6050661064249     0.0     0.0
  210  20.3864463771647   2.1944543200824     0.0     0.0
 MICROCYCLE DIIS UPDATE:                  210                    5
  211   0.0170116217757  -0.2504492169093     0.0     0.0
  212   0.0733970973339  -0.2884324594423     0.0     0.0
  213   0.2331337670742  -0.1351113901185     0.0     0.0
  214   1.2327317848896  -0.5919876404727     0.0     0.0
  215  17.9938431093654   2.0623022317165     0.0     0.0
 MICROCYCLE DIIS UPDATE:                  215                    5
  216   0.0158790895737  -0.2510007082127     0.0     0.0
  217   0.0683120886933  -0.2864547399738     0.0     0.0
  218   0.2203852598791  -0.1438175569664     0.0     0.0
  219   1.1619868408071  -0.5778849761283     0.0     0.0
  220  15.6331203536312   1.9230570785769     0.0     0.0
 MICROCYCLE DIIS UPDATE:                  220                    5
  221   0.0147769834249  -0.2515360725313     0.0     0.0
  222   0.0633906680614  -0.2845289455473     0.0     0.0
  223   0.2075613259586  -0.1522241523482     0.0     0.0
  224   1.0887573831656  -0.5629127131342     0.0     0.0
  225  13.3646473536530   1.7790180252233     0.0     0.0
 MICROCYCLE DIIS UPDATE:                  225                    5
  226   0.0137066249268  -0.2520547902104     0.0     0.0
  227   0.0586365352066  -0.2826574942358     0.0     0.0
  228   0.1947192373449  -0.1603264131116     0.0     0.0
  229   1.0140617714639  -0.5472229972260     0.0     0.0
  230  11.2363196160260   1.6323393231500     0.0     0.0
 MICROCYCLE DIIS UPDATE:                  230                    5
  231   0.0126693327831  -0.2525563437449     0.0     0.0
  232   0.0540533106021  -0.2808428009079     0.0     0.0
  233   0.1819162902277  -0.1681197692824     0.0     0.0
  234   0.9388442808928  -0.5309652386902     0.0     0.0
  235   9.2834742360614   1.4850075916375     0.0     0.0
 MICROCYCLE DIIS UPDATE:                  235                    5
  236   0.0116663820337  -0.2530402370416     0.0     0.0
  237   0.0496443665193  -0.2790872054436     0.0     0.0
  238   0.1692089945836  -0.1756001229762     0.0     0.0
  239   0.8639637768255  -0.5142850605445     0.0     0.0
  240   7.5293936755737   1.3388178855484     0.0     0.0
 MICROCYCLE DIIS UPDATE:                  240                    5
  241   0.0106988927691  -0.2535060483099     0.0     0.0
  242   0.0454123559719  -0.2773927771455     0.0     0.0
  243   0.1566512978954  -0.1827646339429     0.0     0.0
  244   0.7901792322667  -0.4973218009652     0.0     0.0
  245   5.9862732673519   1.1953443932273     0.0     0.0
 MICROCYCLE DIIS UPDATE:                  245                    5
  246   0.0097676098859  -0.2539535346031     0.0     0.0
  247   0.0413582820341  -0.2757609275619     0.0     0.0
  248   0.1442911990261  -0.1896132702907     0.0     0.0
  249   0.7181289184506  -0.4802034861437     0.0     0.0
  250   4.6565495501929   1.0559000942554     0.0     0.0
 MICROCYCLE DIIS UPDATE:                  250                    5
  251   0.0088724990027  -0.2543828232917     0.0     0.0
  252   0.0374797970089  -0.2741916998591     0.0     0.0
  253   0.1321645605298  -0.1961516372362     0.0     0.0
  254   0.6482978416313  -0.4630373373806     0.0     0.0
  255   3.5345116246168   0.9214758254581     0.0     0.0
 MICROCYCLE DIIS UPDATE:                  255                    5
  256   0.0080120028346  -0.2547947640087     0.0     0.0
  257   0.0337680820849  -0.2726824607351     0.0     0.0
  258   0.1202836971894  -0.2023961592996     0.0     0.0
  259   0.5809625022890  -0.4458919378484     0.0     0.0
  260   2.6081581591679   0.7926395262364     0.0     0.0
 MICROCYCLE DIIS UPDATE:                  260                    5
  261   0.0071815944938  -0.2551916129592     0.0     0.0
  262   0.0302017870188  -0.2712253553047     0.0     0.0
  263   0.1086151426790  -0.2083841375096     0.0     0.0
  264   0.5160873975215  -0.4287621658006     0.0     0.0
  265   1.8613569579004   0.6693503730576     0.0     0.0
 MICROCYCLE DIIS UPDATE:                  265                    5
  266   0.0063706393046  -0.2555785171350     0.0     0.0
  267   0.0267338916195  -0.2698017862046     0.0     0.0
  268   0.0970314213388  -0.2141955479536     0.0     0.0
  269   0.4531032117851  -0.4114928386838     0.0     0.0
  270   1.2766452526104   0.5505632579313     0.0     0.0
 MICROCYCLE DIIS UPDATE:                  270                    5
  271   0.0055543225134  -0.2559673320314     0.0     0.0
  272   0.0232579183028  -0.2683682122693     0.0     0.0
  273   0.0851869685705  -0.2200090941809     0.0     0.0
  274   0.3903368939582  -0.3935819140506     0.0     0.0
  275   0.8399311192889   0.4332153167900     0.0     0.0
 MICROCYCLE DIIS UPDATE:                  275                    5
  276   0.0046670010117  -0.2563892208714     0.0     0.0
  277   0.0194964966393  -0.2668092616081     0.0     0.0
  278   0.0721073060843  -0.2262869902940     0.0     0.0
  279   0.3231367618656  -0.3735269826888     0.0     0.0
  280   0.5504008486757   0.3089049792202     0.0     0.0
 MICROCYCLE DIIS UPDATE:                  280                    5
  281   0.0034732105500  -0.2569555781893     0.0     0.0
  282   0.0144635408004  -0.2647106822866     0.0     0.0
  283   0.0541815554879  -0.2346654479306     0.0     0.0
  284   0.2349770008963  -0.3456079058706     0.0     0.0
  285   0.4220855073563   0.1483342071130     0.0     0.0
 MICROCYCLE DIIS UPDATE:                  285                    5
  286   0.0004422325225  -0.2583882282027     0.0     0.0
  287   0.0018180912859  -0.2593725663320     0.0     0.0
  288   0.0070228910560  -0.2556027690236     0.0     0.0
  289   0.0275836042745  -0.2700745440914     0.0     0.0
  290   0.0994761497398  -0.2130424759541     0.0     0.0
 MICROCYCLE DIIS UPDATE:                  290                    5
  291   0.0000723379985  -0.2586316212944     0.0     0.0
  292   0.0002988079975  -0.2584702266557     0.0     0.0
  293   0.0011602258818  -0.2590897098302     0.0     0.0
  294   0.0044706752873  -0.2566966300379     0.0     0.0
  295   0.0174487201610  -0.2659060070400     0.0     0.0
 MICROCYCLE DIIS UPDATE:                  295                    5
  296   0.0000161035722  -0.2585903390235     0.0     0.0
  297   0.0000665706434  -0.2586262623780     0.0     0.0
  298   0.0002582807608  -0.2584882497237     0.0     0.0
  299   0.0009985550974  -0.2590208662382     0.0     0.0
  300   0.0038475709904  -0.2569625476459     0.0     0.0
 MICROCYCLE DIIS UPDATE:                  300                    5
  301   0.0000011865744  -0.2585972915008     0.0     0.0
  302   0.0000049025464  -0.2585999394591     0.0     0.0
  303   0.0000190243948  -0.2585897743831     0.0     0.0
  304   0.0000735116084  -0.2586290085797     0.0     0.0
  305   0.0002838725400  -0.2584774949119     0.0     0.0
 MICROCYCLE DIIS UPDATE:                  305                    5
  306   0.0000000090073  -0.2585978420854     0.0     0.0
 --------------------------------------------------------
 Iterations converged
 CISD correlation energy / hartree =        -0.258597842085437
 CISD total energy / hartree       =        -0.998668747992242

 Singles contributions
     4b1u (alpha) ---     1b1u (alpha)       -0.1554473825

 Doubles contributions
     2ag  (alpha)     2ag  (beta ) ---     1b1u (alpha)     1b1u (beta )       -0.9998817314
     2ag  (alpha)     3ag  (beta ) ---     1b1u (alpha)     1b1u (beta )        0.1555748871
     3ag  (alpha)     2ag  (beta ) ---     1b1u (alpha)     1b1u (beta )        0.1555748871

 Parallel integral file used       4 records with       0 large values


 Task  times  cpu:        0.9s     wall:        0.9s


                                NWChem Input Module
                                -------------------


 Summary of allocated global arrays
-----------------------------------
  No active global arrays


MA_summarize_allocated_blocks: starting scan ...
MA_summarize_allocated_blocks: scan completed: 0 heap blocks, 0 stack blocks
MA usage statistics:

	allocation statistics:
					      heap	     stack
					      ----	     -----
	current number of blocks	         0	         0
	maximum number of blocks	        18	        25
	current total bytes		         0	         0
	maximum total bytes		   1579328	  22509416
	maximum total K-bytes		      1580	     22510
	maximum total M-bytes		         2	        23


                                     CITATION
                                     --------
                Please cite the following reference when publishing
                           results obtained with NWChem:

          E. Apra, E. J. Bylaska, W. A. de Jong, N. Govind, K. Kowalski,
       T. P. Straatsma, M. Valiev, H. J. J. van Dam, Y. Alexeev, J. Anchell,
       V. Anisimov, F. W. Aquino, R. Atta-Fynn, J. Autschbach, N. P. Bauman,
     J. C. Becca, D. E. Bernholdt, K. Bhaskaran-Nair, S. Bogatko, P. Borowski,
         J. Boschen, J. Brabec, A. Bruner, E. Cauet, Y. Chen, G. N. Chuev,
      C. J. Cramer, J. Daily, M. J. O. Deegan, T. H. Dunning Jr., M. Dupuis,
   K. G. Dyall, G. I. Fann, S. A. Fischer, A. Fonari, H. Fruchtl, L. Gagliardi,
      J. Garza, N. Gawande, S. Ghosh, K. Glaesemann, A. W. Gotz, J. Hammond,
       V. Helms, E. D. Hermes, K. Hirao, S. Hirata, M. Jacquelin, L. Jensen,
   B. G. Johnson, H. Jonsson, R. A. Kendall, M. Klemm, R. Kobayashi, V. Konkov,
      S. Krishnamoorthy, M. Krishnan, Z. Lin, R. D. Lins, R. J. Littlefield,
      A. J. Logsdail, K. Lopata, W. Ma, A. V. Marenich, J. Martin del Campo,
   D. Mejia-Rodriguez, J. E. Moore, J. M. Mullin, T. Nakajima, D. R. Nascimento,
    J. A. Nichols, P. J. Nichols, J. Nieplocha, A. Otero-de-la-Roza, B. Palmer,
    A. Panyala, T. Pirojsirikul, B. Peng, R. Peverati, J. Pittner, L. Pollack,
   R. M. Richard, P. Sadayappan, G. C. Schatz, W. A. Shelton, D. W. Silverstein,
   D. M. A. Smith, T. A. Soares, D. Song, M. Swart, H. L. Taylor, G. S. Thomas,
            V. Tipparaju, D. G. Truhlar, K. Tsemekhman, T. Van Voorhis,
      A. Vazquez-Mayagoitia, P. Verma, O. Villa, A. Vishnu, K. D. Vogiatzis,
        D. Wang, J. H. Weare, M. J. Williamson, T. L. Windus, K. Wolinski,
        A. T. Wong, Q. Wu, C. Yang, Q. Yu, M. Zacharias, Z. Zhang, Y. Zhao,
                                and R. J. Harrison
                        "NWChem: Past, present, and future
                         J. Chem. Phys. 152, 184102 (2020)
                               doi:10.1063/5.0004997

                                      AUTHORS
                                      -------
  E. Apra, E. J. Bylaska, N. Govind, K. Kowalski, M. Valiev, D. Mejia-Rodriguez,
       A. Kunitsa, N. P. Bauman, A. Panyala, W. A. de Jong, T. P. Straatsma,
   H. J. J. van Dam, D. Wang, T. L. Windus, J. Hammond, J. Autschbach, A. Woods,
    K. Bhaskaran-Nair, J. Brabec, K. Lopata, S. A. Fischer, S. Krishnamoorthy,
     M. Jacquelin, W. Ma, M. Klemm, O. Villa, Y. Chen, V. Anisimov, F. Aquino,
     S. Hirata, M. T. Hackler, E. Hermes, L. Jensen, J. E. Moore, J. C. Becca,
      V. Konjkov, T. Risthaus, M. Malagoli, A. Marenich, A. Otero-de-la-Roza,
        J. Mullin, P. Nichols, R. Peverati, J. Pittner, Y. Zhao, P.-D. Fan,
        A. Fonari, M. J. Williamson, R. J. Harrison, J. R. Rehr, M. Dupuis,
     D. Silverstein, D. M. A. Smith, J. Nieplocha, V. Tipparaju, M. Krishnan,
     B. E. Van Kuiken, A. Vazquez-Mayagoitia, M. Swart, Q. Wu, T. Van Voorhis,
     A. A. Auer, M. Nooijen, L. D. Crosby, E. Brown, G. Cisneros, G. I. Fann,
   H. Fruchtl, J. Garza, K. Hirao, R. A. Kendall, J. A. Nichols, K. Tsemekhman,
    K. Wolinski, J. Anchell, D. E. Bernholdt, P. Borowski, T. Clark, D. Clerc,
   H. Dachsel, M. J. O. Deegan, K. Dyall, D. Elwood, E. Glendening, M. Gutowski,
   A. C. Hess, J. Jaffe, B. G. Johnson, J. Ju, R. Kobayashi, R. Kutteh, Z. Lin,
   R. Littlefield, X. Long, B. Meng, T. Nakajima, S. Niu, L. Pollack, M. Rosing,
   K. Glaesemann, G. Sandrone, M. Stave, H. Taylor, G. Thomas, J. H. van Lenthe,
                               A. T. Wong, Z. Zhang.

 Total times  cpu:        1.0s     wall:        1.0s
