 argument  1 = cc-PVDZ/RHF.nw



============================== echo of input deck ==============================
echo

start molecule

title "formaldehydeNotOptimized"
memory total 4 gb

charge 0
geometry units angstrom print xyz
 C  0.00000024     0.25211309     0.00000000
 O -0.00000001    -0.92995152     0.00000000
 H -0.00000012     0.83891922     0.93253272
 H -0.00000012     0.83891922    -0.93253272
end

basis spherical
* library cc-PVDZ
end

task scf
================================================================================


                                         
                                         


             Northwest Computational Chemistry Package (NWChem) 7.2.2
             --------------------------------------------------------


                    Environmental Molecular Sciences Laboratory
                       Pacific Northwest National Laboratory
                                Richland, WA 99352

                              Copyright (c) 1994-2022
                       Pacific Northwest National Laboratory
                            Battelle Memorial Institute

             NWChem is an open-source computational chemistry package
                        distributed under the terms of the
                      Educational Community License (ECL) 2.0
             A copy of the license is included with this distribution
                              in the LICENSE.TXT file

                                  ACKNOWLEDGMENT
                                  --------------

            This software and its documentation were developed at the
            EMSL at Pacific Northwest National Laboratory, a multiprogram
            national laboratory, operated for the U.S. Department of Energy
            by Battelle under Contract Number DE-AC05-76RL01830. Support
            for this work was provided by the Department of Energy Office
            of Biological and Environmental Research, Office of Basic
            Energy Sciences, and the Office of Advanced Scientific Computing.


           Job information
           ---------------

    hostname        = dhcp-10-22-10-228.wlan.ntnu.no
    program         = nwchem
    date            = Fri Mar 29 15:38:47 2024

    compiled        = Sun_Dec_10_10:51:21_2023
    source          = /private/tmp/nwchem-20231210-5888-3uvdjr/nwchem-7.2.2
    nwchem branch   = 7.2.2
    nwchem revision = 74936fb9
    ga revision     = 5.8.0
    use scalapack   = T
    input           = cc-PVDZ/RHF.nw
    prefix          = molecule.
    data base       = ./molecule.db
    status          = startup
    nproc           =        4
    time left       =     -1s



           Memory information
           ------------------

    heap     =  134217724 doubles =   1024.0 Mbytes
    stack    =  134217729 doubles =   1024.0 Mbytes
    global   =  268435456 doubles =   2048.0 Mbytes (distinct from heap & stack)
    total    =  536870909 doubles =   4096.0 Mbytes
    verify   = yes
    hardfail = no 


           Directory information
           ---------------------

  0 permanent = .
  0 scratch   = .




                                NWChem Input Module
                                -------------------


                             formaldehydeNotOptimized
                             ------------------------

 Scaling coordinates for geometry "geometry" by  1.889725989
 (inverse scale =  0.529177249)

 C2V symmetry detected

          ------
          auto-z
          ------
  Looking for out-of-plane bends
  no constraints, skipping    0.0000000000000000     
  no constraints, skipping    0.0000000000000000     


                             Geometry "geometry" -> ""
                             -------------------------

 Output coordinates in angstroms (scale by  1.889725989 to convert to a.u.)

  No.       Tag          Charge          X              Y              Z
 ---- ---------------- ---------- -------------- -------------- --------------
    1 C                    6.0000     0.00000000     0.00000000    -0.51768154
    2 O                    8.0000     0.00000000     0.00000000     0.66438307
    3 H                    1.0000     0.00000000     0.93253272    -1.10448767
    4 H                    1.0000     0.00000000    -0.93253272    -1.10448767

      Atomic Mass 
      ----------- 

      C                 12.000000
      O                 15.994910
      H                  1.007825


 Effective nuclear repulsion energy (a.u.)      31.7696113616

            Nuclear Dipole moment (a.u.) 
            ----------------------------
        X                 Y               Z
 ---------------- ---------------- ----------------
     0.0000000000     0.0000000000     0.0000000000

      Symmetry information
      --------------------

 Group name             C2v       
 Group number             16
 Group order               4
 No. of unique centers     3

      Symmetry unique atoms

     1    2    3



                                Z-matrix (autoz)
                                -------- 

 Units are Angstrom for bonds and degrees for angles

      Type          Name      I     J     K     L     M      Value
      ----------- --------  ----- ----- ----- ----- ----- ----------
    1 Stretch                  1     2                       1.18206
    2 Stretch                  1     3                       1.10180
    3 Stretch                  1     4                       1.10180
    4 Bend                     2     1     3               122.18059
    5 Bend                     2     1     4               122.18059
    6 Bend                     3     1     4               115.63882
    7 Torsion                  2     1     3     4         180.00000
    8 Torsion                  2     1     4     3         180.00000
    9 Torsion                  3     1     2     4         180.00000
   10 Torsion                  2     4     1     3         180.00000
   11 Torsion                  3     2     1     4         180.00000
   12 Torsion                  2     3     1     4         180.00000


            XYZ format geometry
            -------------------
     4
 geometry
 C                     0.00000000     0.00000000    -0.51768154
 O                     0.00000000     0.00000000     0.66438307
 H                     0.00000000     0.93253272    -1.10448767
 H                     0.00000000    -0.93253272    -1.10448767

 ==============================================================================
                                internuclear distances
 ------------------------------------------------------------------------------
       center one      |      center two      | atomic units |  angstroms
 ------------------------------------------------------------------------------
    2 O                |   1 C                |     2.23378  |     1.18206
    3 H                |   1 C                |     2.08210  |     1.10180
    4 H                |   1 C                |     2.08210  |     1.10180
 ------------------------------------------------------------------------------
                         number of included internuclear distances:          3
 ==============================================================================



 ==============================================================================
                                 internuclear angles
 ------------------------------------------------------------------------------
        center 1       |       center 2       |       center 3       |  degrees
 ------------------------------------------------------------------------------
    2 O                |   1 C                |   3 H                |   122.18
    2 O                |   1 C                |   4 H                |   122.18
    3 H                |   1 C                |   4 H                |   115.64
 ------------------------------------------------------------------------------
                            number of included internuclear angles:          3
 ==============================================================================



  library name resolved from: .nwchemrc
  library file name is: </opt/homebrew/Cellar/nwchem/7.2.2/share/nwchem/libraries/>
  


 Summary of "ao basis" -> "" (spherical)
 ------------------------------------------------------------------------------
       Tag                 Description            Shells   Functions and Types
 ---------------- ------------------------------  ------  ---------------------
 *                          cc-PVDZ                   on all atoms 


                      Basis "ao basis" -> "ao basis" (spherical)
                      -----
  C (Carbon)
  ----------
            Exponent  Coefficients 
       -------------- ---------------------------------------------------------
  1 S  6.66500000E+03  0.000692
  1 S  1.00000000E+03  0.005329
  1 S  2.28000000E+02  0.027077
  1 S  6.47100000E+01  0.101718
  1 S  2.10600000E+01  0.274740
  1 S  7.49500000E+00  0.448564
  1 S  2.79700000E+00  0.285074
  1 S  5.21500000E-01  0.015204

  2 S  6.66500000E+03 -0.000146
  2 S  1.00000000E+03 -0.001154
  2 S  2.28000000E+02 -0.005725
  2 S  6.47100000E+01 -0.023312
  2 S  2.10600000E+01 -0.063955
  2 S  7.49500000E+00 -0.149981
  2 S  2.79700000E+00 -0.127262
  2 S  5.21500000E-01  0.544529

  3 S  1.59600000E-01  1.000000

  4 P  9.43900000E+00  0.038109
  4 P  2.00200000E+00  0.209480
  4 P  5.45600000E-01  0.508557

  5 P  1.51700000E-01  1.000000

  6 D  5.50000000E-01  1.000000

  O (Oxygen)
  ----------
            Exponent  Coefficients 
       -------------- ---------------------------------------------------------
  1 S  1.17200000E+04  0.000710
  1 S  1.75900000E+03  0.005470
  1 S  4.00800000E+02  0.027837
  1 S  1.13700000E+02  0.104800
  1 S  3.70300000E+01  0.283062
  1 S  1.32700000E+01  0.448719
  1 S  5.02500000E+00  0.270952
  1 S  1.01300000E+00  0.015458

  2 S  1.17200000E+04 -0.000160
  2 S  1.75900000E+03 -0.001263
  2 S  4.00800000E+02 -0.006267
  2 S  1.13700000E+02 -0.025716
  2 S  3.70300000E+01 -0.070924
  2 S  1.32700000E+01 -0.165411
  2 S  5.02500000E+00 -0.116955
  2 S  1.01300000E+00  0.557368

  3 S  3.02300000E-01  1.000000

  4 P  1.77000000E+01  0.043018
  4 P  3.85400000E+00  0.228913
  4 P  1.04600000E+00  0.508728

  5 P  2.75300000E-01  1.000000

  6 D  1.18500000E+00  1.000000

  H (Hydrogen)
  ------------
            Exponent  Coefficients 
       -------------- ---------------------------------------------------------
  1 S  1.30100000E+01  0.019685
  1 S  1.96200000E+00  0.137977
  1 S  4.44600000E-01  0.478148

  2 S  1.22000000E-01  1.000000

  3 P  7.27000000E-01  1.000000



 Summary of "ao basis" -> "ao basis" (spherical)
 ------------------------------------------------------------------------------
       Tag                 Description            Shells   Functions and Types
 ---------------- ------------------------------  ------  ---------------------
 C                          cc-PVDZ                  6       14   3s2p1d
 O                          cc-PVDZ                  6       14   3s2p1d
 H                          cc-PVDZ                  3        5   2s1p


                                 NWChem SCF Module
                                 -----------------


                             formaldehydeNotOptimized



  ao basis        = "ao basis"
  functions       =    38
  atoms           =     4
  closed shells   =     8
  open shells     =     0
  charge          =   0.00
  wavefunction    = RHF 
  input vectors   = atomic
  output vectors  = ./molecule.movecs
  use symmetry    = T
  symmetry adapt  = T


 Summary of "ao basis" -> "ao basis" (spherical)
 ------------------------------------------------------------------------------
       Tag                 Description            Shells   Functions and Types
 ---------------- ------------------------------  ------  ---------------------
 C                          cc-PVDZ                  6       14   3s2p1d
 O                          cc-PVDZ                  6       14   3s2p1d
 H                          cc-PVDZ                  3        5   2s1p


      Symmetry analysis of basis
      --------------------------

        a1         18
        a2          3
        b1          7
        b2         10


 Forming initial guess at       0.1s


      Superposition of Atomic Density Guess
      -------------------------------------

 Sum of atomic energies:        -113.42837521

      Non-variational initial energy
      ------------------------------

 Total energy =    -114.170881
 1-e energy   =    -216.972617
 2-e energy   =      71.032124
 HOMO         =      -0.322587
 LUMO         =      -0.029305


      Symmetry analysis of molecular orbitals - initial
      -------------------------------------------------

  Numbering of irreducible representations: 

     1 a1          2 a2          3 b1          4 b2      

  Orbital symmetries:

     1 a1          2 a1          3 a1          4 a1          5 b2      
     6 a1          7 b1          8 b2          9 b1         10 a1      
    11 b2         12 a1         13 a1         14 b1         15 b2      
    16 b2         17 a1         18 a1      


 Starting SCF solution at       0.2s



 ----------------------------------------------
         Quadratically convergent ROHF

 Convergence threshold     :          1.000E-04
 Maximum no. of iterations :           30
 Final Fock-matrix accuracy:          1.000E-07
 ----------------------------------------------


 #quartets = 9.609D+03 #integrals = 8.149D+04 #direct =  0.0% #cached =100.0%


 Integral file          = ./molecule.aoints.0
 Record size in doubles =  65536        No. of integs per rec  =  43688
 Max. records in memory =      3        Max. records in file   = 145822
 No. of bits per label  =      8        No. of bits per value  =     64


File balance: exchanges=     0  moved=     0  time=   0.0


              iter       energy          gnorm     gmax       time
             ----- ------------------- --------- --------- --------
                 1     -113.8100238811  1.06D+00  4.48D-01      0.3
                 2     -113.8706613236  2.65D-01  8.67D-02      0.4
                 3     -113.8771922180  1.25D-02  7.36D-03      0.6
                 4     -113.8772227147  7.69D-05  2.68D-05      0.7


       Final RHF  results 
       ------------------ 

         Total SCF energy =   -113.877222714722
      One-electron energy =   -218.263105574144
      Two-electron energy =     72.616271497869
 Nuclear repulsion energy =     31.769611361553

        Time for solution =      0.5s



       Symmetry analysis of molecular orbitals - final
       -----------------------------------------------

  Numbering of irreducible representations: 

     1 a1          2 a2          3 b1          4 b2      

  Orbital symmetries:

     1 a1          2 a1          3 a1          4 a1          5 b2      
     6 a1          7 b1          8 b2          9 b1         10 a1      
    11 b2         12 a1         13 b1         14 a1         15 b2      
    16 b2         17 a1         18 a1      

             Final eigenvalues
             -----------------

              1      
    1  -20.5745
    2  -11.3412
    3   -1.4192
    4   -0.8625
    5   -0.6933
    6   -0.6529
    7   -0.5394
    8   -0.4322
    9    0.1431
   10    0.1910
   11    0.2605
   12    0.3623
   13    0.6678
   14    0.6728
   15    0.7402
   16    0.8192
   17    0.9175
   18    0.9825

                       ROHF Final Molecular Orbital Analysis
                       -------------------------------------

 Vector    2  Occ=2.000000D+00  E=-1.134120D+01  Symmetry=a1
              MO Center=  1.7D-18, -2.0D-18, -5.2D-01, r^2= 2.7D-02
   Bfn.  Coefficient  Atom+Function         Bfn.  Coefficient  Atom+Function  
  ----- ------------  ---------------      ----- ------------  ---------------
     1      1.001794  1 C  s          

 Vector    3  Occ=2.000000D+00  E=-1.419249D+00  Symmetry=a1
              MO Center= -2.1D-17, -8.4D-17,  3.3D-01, r^2= 4.8D-01
   Bfn.  Coefficient  Atom+Function         Bfn.  Coefficient  Atom+Function  
  ----- ------------  ---------------      ----- ------------  ---------------
    16      0.407033  2 O  s                 17      0.373094  2 O  s          
     2      0.215876  1 C  s                  6      0.193586  1 C  pz         

 Vector    4  Occ=2.000000D+00  E=-8.625457D-01  Symmetry=a1
              MO Center=  7.3D-16,  1.3D-17, -5.8D-01, r^2= 1.3D+00
   Bfn.  Coefficient  Atom+Function         Bfn.  Coefficient  Atom+Function  
  ----- ------------  ---------------      ----- ------------  ---------------
     2      0.340462  1 C  s                 17     -0.242073  2 O  s          
    29      0.237192  3 H  s                 34      0.237192  4 H  s          
     3      0.230002  1 C  s                 16     -0.192354  2 O  s          
     6     -0.171995  1 C  pz                20     -0.154010  2 O  pz         

 Vector    5  Occ=2.000000D+00  E=-6.932842D-01  Symmetry=b2
              MO Center=  9.8D-17, -1.3D-16, -2.9D-01, r^2= 1.3D+00
   Bfn.  Coefficient  Atom+Function         Bfn.  Coefficient  Atom+Function  
  ----- ------------  ---------------      ----- ------------  ---------------
     5      0.396541  1 C  py                19      0.351864  2 O  py         
    29      0.240388  3 H  s                 34     -0.240388  4 H  s          
    22      0.208418  2 O  py         

 Vector    6  Occ=2.000000D+00  E=-6.528816D-01  Symmetry=a1
              MO Center=  1.5D-30, -2.9D-16,  3.9D-01, r^2= 1.2D+00
   Bfn.  Coefficient  Atom+Function         Bfn.  Coefficient  Atom+Function  
  ----- ------------  ---------------      ----- ------------  ---------------
    20      0.502616  2 O  pz                 6     -0.381350  1 C  pz         
    23      0.293350  2 O  pz                17      0.290608  2 O  s          

 Vector    7  Occ=2.000000D+00  E=-5.393750D-01  Symmetry=b1
              MO Center= -5.5D-16, -2.9D-16,  2.7D-01, r^2= 9.5D-01
   Bfn.  Coefficient  Atom+Function         Bfn.  Coefficient  Atom+Function  
  ----- ------------  ---------------      ----- ------------  ---------------
    18      0.486105  2 O  px                 4      0.341739  1 C  px         
    21      0.335976  2 O  px                 7      0.206927  1 C  px         

 Vector    8  Occ=2.000000D+00  E=-4.322183D-01  Symmetry=b2
              MO Center= -2.6D-17, -4.6D-16,  2.7D-03, r^2= 1.6D+00
   Bfn.  Coefficient  Atom+Function         Bfn.  Coefficient  Atom+Function  
  ----- ------------  ---------------      ----- ------------  ---------------
    19      0.534929  2 O  py                22      0.415450  2 O  py         
    29     -0.259019  3 H  s                 34      0.259019  4 H  s          
     5     -0.199599  1 C  py                30     -0.182397  3 H  s          
    35      0.182397  4 H  s          

 Vector    9  Occ=0.000000D+00  E= 1.430830D-01  Symmetry=b1
              MO Center=  8.8D-15,  3.0D-17, -2.8D-01, r^2= 1.7D+00
   Bfn.  Coefficient  Atom+Function         Bfn.  Coefficient  Atom+Function  
  ----- ------------  ---------------      ----- ------------  ---------------
     7      0.722140  1 C  px                21     -0.530480  2 O  px         
     4      0.396516  1 C  px                18     -0.375380  2 O  px         

 Vector   10  Occ=0.000000D+00  E= 1.909726D-01  Symmetry=a1
              MO Center= -1.6D-16, -6.6D-17, -1.3D+00, r^2= 3.9D+00
   Bfn.  Coefficient  Atom+Function         Bfn.  Coefficient  Atom+Function  
  ----- ------------  ---------------      ----- ------------  ---------------
     3      1.962393  1 C  s                 30     -1.378793  3 H  s          
    35     -1.378793  4 H  s                  9     -0.578939  1 C  pz         
     6     -0.187512  1 C  pz         

 Vector   11  Occ=0.000000D+00  E= 2.605052D-01  Symmetry=b2
              MO Center=  2.0D-17, -1.3D-15, -1.4D+00, r^2= 4.2D+00
   Bfn.  Coefficient  Atom+Function         Bfn.  Coefficient  Atom+Function  
  ----- ------------  ---------------      ----- ------------  ---------------
    30      1.892930  3 H  s                 35     -1.892930  4 H  s          
     8     -1.429625  1 C  py                 5     -0.357301  1 C  py         
    22      0.314205  2 O  py         

 Vector   12  Occ=0.000000D+00  E= 3.622832D-01  Symmetry=a1
              MO Center= -2.6D-15, -2.2D-16, -3.6D-01, r^2= 2.9D+00
   Bfn.  Coefficient  Atom+Function         Bfn.  Coefficient  Atom+Function  
  ----- ------------  ---------------      ----- ------------  ---------------
     9      1.758254  1 C  pz                17     -1.764222  2 O  s          
     3      1.292561  1 C  s                 23      0.594892  2 O  pz         

 Vector   13  Occ=0.000000D+00  E= 6.678118D-01  Symmetry=b1
              MO Center=  8.2D-14,  4.7D-17, -5.3D-01, r^2= 1.9D+00
   Bfn.  Coefficient  Atom+Function         Bfn.  Coefficient  Atom+Function  
  ----- ------------  ---------------      ----- ------------  ---------------
     7     -1.061798  1 C  px                 4      1.033198  1 C  px         

 Vector   14  Occ=0.000000D+00  E= 6.728123D-01  Symmetry=a1
              MO Center= -9.8D-14, -1.2D-14, -1.1D+00, r^2= 1.7D+00
   Bfn.  Coefficient  Atom+Function         Bfn.  Coefficient  Atom+Function  
  ----- ------------  ---------------      ----- ------------  ---------------
    29     -0.807400  3 H  s                 34     -0.807400  4 H  s          
     3      0.791883  1 C  s                  9     -0.317532  1 C  pz         
    14      0.270178  1 C  d  2              30      0.252573  3 H  s          
    35      0.252573  4 H  s          

 Vector   15  Occ=0.000000D+00  E= 7.401802D-01  Symmetry=b2
              MO Center= -2.0D-29,  6.9D-15, -3.1D-01, r^2= 2.4D+00
   Bfn.  Coefficient  Atom+Function         Bfn.  Coefficient  Atom+Function  
  ----- ------------  ---------------      ----- ------------  ---------------
     8      2.209838  1 C  py                30     -0.747993  3 H  s          
    35      0.747993  4 H  s                 29     -0.676865  3 H  s          
    34      0.676865  4 H  s                 22     -0.379265  2 O  py         
     5     -0.340605  1 C  py                19     -0.310231  2 O  py         

 Vector   16  Occ=0.000000D+00  E= 8.191580D-01  Symmetry=b2
              MO Center=  4.3D-29,  7.3D-15, -8.6D-01, r^2= 2.3D+00
   Bfn.  Coefficient  Atom+Function         Bfn.  Coefficient  Atom+Function  
  ----- ------------  ---------------      ----- ------------  ---------------
     8      1.433886  1 C  py                30     -1.392140  3 H  s          
    35      1.392140  4 H  s                  5     -0.804774  1 C  py         
    29      0.396516  3 H  s                 34     -0.396516  4 H  s          
    11     -0.366427  1 C  d -1              32      0.171934  3 H  py         
    37      0.171934  4 H  py                33     -0.164508  3 H  pz         

 Vector   17  Occ=0.000000D+00  E= 9.175300D-01  Symmetry=a1
              MO Center=  1.5D-15,  1.5D-16, -5.9D-01, r^2= 2.0D+00
   Bfn.  Coefficient  Atom+Function         Bfn.  Coefficient  Atom+Function  
  ----- ------------  ---------------      ----- ------------  ---------------
     3      2.328897  1 C  s                  9     -1.155165  1 C  pz         
     6      0.977754  1 C  pz                30     -0.924419  3 H  s          
    35     -0.924419  4 H  s                 23      0.558283  2 O  pz         
     2     -0.439361  1 C  s                 12     -0.255490  1 C  d  0       
     1     -0.223973  1 C  s                 20      0.201456  2 O  pz         

 Vector   18  Occ=0.000000D+00  E= 9.824610D-01  Symmetry=a1
              MO Center=  8.0D-15, -3.4D-15, -5.4D-01, r^2= 2.1D+00
   Bfn.  Coefficient  Atom+Function         Bfn.  Coefficient  Atom+Function  
  ----- ------------  ---------------      ----- ------------  ---------------
     3      3.140668  1 C  s                  2     -1.481756  1 C  s          
    30     -0.875362  3 H  s                 35     -0.875362  4 H  s          
    17     -0.814303  2 O  s                  1     -0.610405  1 C  s          
    20     -0.415320  2 O  pz                23      0.355568  2 O  pz         
    12      0.341267  1 C  d  0              33     -0.160446  3 H  pz         


 center of mass
 --------------
 x =   0.00000000 y =   0.00000000 z =   0.13779494

 moments of inertia (a.u.)
 ------------------
          51.167336677398           0.000000000000           0.000000000000
           0.000000000000          44.907817817247           0.000000000000
           0.000000000000           0.000000000000           6.259518860151

  Mulliken analysis of the total density
  --------------------------------------

    Atom       Charge   Shell Charges
 -----------   ------   -------------------------------------------------------
    1 C    6     5.76   2.00  0.69  0.41  1.88  0.62  0.15
    2 O    8     8.28   2.00  0.85  0.91  2.78  1.71  0.02
    3 H    1     0.98   0.77  0.18  0.03
    4 H    1     0.98   0.77  0.18  0.03

       Multipole analysis of the density wrt the origin
       ------------------------------------------------

     L   x y z        total         open         nuclear
     -   - - -        -----         ----         -------
     0   0 0 0     -0.000000      0.000000     16.000000

     1   1 0 0     -0.000000      0.000000      0.000000
     1   0 1 0      0.000000      0.000000      0.000000
     1   0 0 1     -1.010433      0.000000      0.000000

     2   2 0 0     -8.505565      0.000000      0.000000
     2   1 1 0     -0.000000      0.000000      0.000000
     2   1 0 1      0.000000      0.000000      0.000000
     2   0 2 0     -8.486605      0.000000      6.210918
     2   0 1 1      0.000000      0.000000      0.000000
     2   0 0 2     -8.828465      0.000000     27.065061


 Parallel integral file used       4 records with       0 large values


 Task  times  cpu:        0.7s     wall:        0.7s


                                NWChem Input Module
                                -------------------


 Summary of allocated global arrays
-----------------------------------
  No active global arrays


MA_summarize_allocated_blocks: starting scan ...
MA_summarize_allocated_blocks: scan completed: 0 heap blocks, 0 stack blocks
MA usage statistics:

	allocation statistics:
					      heap	     stack
					      ----	     -----
	current number of blocks	         0	         0
	maximum number of blocks	        18	        14
	current total bytes		         0	         0
	maximum total bytes		   1589712	  22509992
	maximum total K-bytes		      1590	     22510
	maximum total M-bytes		         2	        23


                                     CITATION
                                     --------
                Please cite the following reference when publishing
                           results obtained with NWChem:

          E. Apra, E. J. Bylaska, W. A. de Jong, N. Govind, K. Kowalski,
       T. P. Straatsma, M. Valiev, H. J. J. van Dam, Y. Alexeev, J. Anchell,
       V. Anisimov, F. W. Aquino, R. Atta-Fynn, J. Autschbach, N. P. Bauman,
     J. C. Becca, D. E. Bernholdt, K. Bhaskaran-Nair, S. Bogatko, P. Borowski,
         J. Boschen, J. Brabec, A. Bruner, E. Cauet, Y. Chen, G. N. Chuev,
      C. J. Cramer, J. Daily, M. J. O. Deegan, T. H. Dunning Jr., M. Dupuis,
   K. G. Dyall, G. I. Fann, S. A. Fischer, A. Fonari, H. Fruchtl, L. Gagliardi,
      J. Garza, N. Gawande, S. Ghosh, K. Glaesemann, A. W. Gotz, J. Hammond,
       V. Helms, E. D. Hermes, K. Hirao, S. Hirata, M. Jacquelin, L. Jensen,
   B. G. Johnson, H. Jonsson, R. A. Kendall, M. Klemm, R. Kobayashi, V. Konkov,
      S. Krishnamoorthy, M. Krishnan, Z. Lin, R. D. Lins, R. J. Littlefield,
      A. J. Logsdail, K. Lopata, W. Ma, A. V. Marenich, J. Martin del Campo,
   D. Mejia-Rodriguez, J. E. Moore, J. M. Mullin, T. Nakajima, D. R. Nascimento,
    J. A. Nichols, P. J. Nichols, J. Nieplocha, A. Otero-de-la-Roza, B. Palmer,
    A. Panyala, T. Pirojsirikul, B. Peng, R. Peverati, J. Pittner, L. Pollack,
   R. M. Richard, P. Sadayappan, G. C. Schatz, W. A. Shelton, D. W. Silverstein,
   D. M. A. Smith, T. A. Soares, D. Song, M. Swart, H. L. Taylor, G. S. Thomas,
            V. Tipparaju, D. G. Truhlar, K. Tsemekhman, T. Van Voorhis,
      A. Vazquez-Mayagoitia, P. Verma, O. Villa, A. Vishnu, K. D. Vogiatzis,
        D. Wang, J. H. Weare, M. J. Williamson, T. L. Windus, K. Wolinski,
        A. T. Wong, Q. Wu, C. Yang, Q. Yu, M. Zacharias, Z. Zhang, Y. Zhao,
                                and R. J. Harrison
                        "NWChem: Past, present, and future
                         J. Chem. Phys. 152, 184102 (2020)
                               doi:10.1063/5.0004997

                                      AUTHORS
                                      -------
  E. Apra, E. J. Bylaska, N. Govind, K. Kowalski, M. Valiev, D. Mejia-Rodriguez,
       A. Kunitsa, N. P. Bauman, A. Panyala, W. A. de Jong, T. P. Straatsma,
   H. J. J. van Dam, D. Wang, T. L. Windus, J. Hammond, J. Autschbach, A. Woods,
    K. Bhaskaran-Nair, J. Brabec, K. Lopata, S. A. Fischer, S. Krishnamoorthy,
     M. Jacquelin, W. Ma, M. Klemm, O. Villa, Y. Chen, V. Anisimov, F. Aquino,
     S. Hirata, M. T. Hackler, E. Hermes, L. Jensen, J. E. Moore, J. C. Becca,
      V. Konjkov, T. Risthaus, M. Malagoli, A. Marenich, A. Otero-de-la-Roza,
        J. Mullin, P. Nichols, R. Peverati, J. Pittner, Y. Zhao, P.-D. Fan,
        A. Fonari, M. J. Williamson, R. J. Harrison, J. R. Rehr, M. Dupuis,
     D. Silverstein, D. M. A. Smith, J. Nieplocha, V. Tipparaju, M. Krishnan,
     B. E. Van Kuiken, A. Vazquez-Mayagoitia, M. Swart, Q. Wu, T. Van Voorhis,
     A. A. Auer, M. Nooijen, L. D. Crosby, E. Brown, G. Cisneros, G. I. Fann,
   H. Fruchtl, J. Garza, K. Hirao, R. A. Kendall, J. A. Nichols, K. Tsemekhman,
    K. Wolinski, J. Anchell, D. E. Bernholdt, P. Borowski, T. Clark, D. Clerc,
   H. Dachsel, M. J. O. Deegan, K. Dyall, D. Elwood, E. Glendening, M. Gutowski,
   A. C. Hess, J. Jaffe, B. G. Johnson, J. Ju, R. Kobayashi, R. Kutteh, Z. Lin,
   R. Littlefield, X. Long, B. Meng, T. Nakajima, S. Niu, L. Pollack, M. Rosing,
   K. Glaesemann, G. Sandrone, M. Stave, H. Taylor, G. Thomas, J. H. van Lenthe,
                               A. T. Wong, Z. Zhang.

 Total times  cpu:        0.7s     wall:        0.7s
