 argument  1 = diethyletherOptimized.txt



============================== echo of input deck ==============================
echo

start molecule

title "diethylether"
memory total 2 gb

charge 0
geometry units angstrom print xyz
 O     0.00000000     0.00000000    -0.22784882
 C    -1.17572811     0.00000000     0.52502392
 C     1.17572811     0.00000000     0.52502392
 C    -2.35878452     0.00000000    -0.41940646
 C     2.35878452     0.00000000    -0.41940646
 H    -1.20754240     0.88298938     1.17637288
 H    -1.20754240    -0.88298938     1.17637288
 H     1.20754240    -0.88298938     1.17637288
 H     1.20754240     0.88298938     1.17637288
 H    -3.29612084     0.00000000     0.14134896
 H    -2.33527916    -0.88415659    -1.05869291
 H    -2.33527916     0.88415659    -1.05869291
 H     3.29612084     0.00000000     0.14134896
 H     2.33527916    -0.88415659    -1.05869291
 H     2.33527916     0.88415659    -1.05869291

end

basis spherical
 * library aug-cc-pVDZ
end

task scf
================================================================================


                                         
                                         


             Northwest Computational Chemistry Package (NWChem) 7.2.2
             --------------------------------------------------------


                    Environmental Molecular Sciences Laboratory
                       Pacific Northwest National Laboratory
                                Richland, WA 99352

                              Copyright (c) 1994-2022
                       Pacific Northwest National Laboratory
                            Battelle Memorial Institute

             NWChem is an open-source computational chemistry package
                        distributed under the terms of the
                      Educational Community License (ECL) 2.0
             A copy of the license is included with this distribution
                              in the LICENSE.TXT file

                                  ACKNOWLEDGMENT
                                  --------------

            This software and its documentation were developed at the
            EMSL at Pacific Northwest National Laboratory, a multiprogram
            national laboratory, operated for the U.S. Department of Energy
            by Battelle under Contract Number DE-AC05-76RL01830. Support
            for this work was provided by the Department of Energy Office
            of Biological and Environmental Research, Office of Basic
            Energy Sciences, and the Office of Advanced Scientific Computing.


           Job information
           ---------------

    hostname        = dhcp-10-22-10-180.wlan.ntnu.no
    program         = nwchem
    date            = Thu Mar 21 12:35:08 2024

    compiled        = Sun_Dec_10_10:51:21_2023
    source          = /private/tmp/nwchem-20231210-5888-3uvdjr/nwchem-7.2.2
    nwchem branch   = 7.2.2
    nwchem revision = 74936fb9
    ga revision     = 5.8.0
    use scalapack   = T
    input           = diethyletherOptimized.txt
    prefix          = molecule.
    data base       = ./molecule.db
    status          = startup
    nproc           =        4
    time left       =     -1s



           Memory information
           ------------------

    heap     =   67108860 doubles =    512.0 Mbytes
    stack    =   67108865 doubles =    512.0 Mbytes
    global   =  134217728 doubles =   1024.0 Mbytes (distinct from heap & stack)
    total    =  268435453 doubles =   2048.0 Mbytes
    verify   = yes
    hardfail = no 


           Directory information
           ---------------------

  0 permanent = .
  0 scratch   = .




                                NWChem Input Module
                                -------------------


                                   diethylether
                                   ------------

 Scaling coordinates for geometry "geometry" by  1.889725989
 (inverse scale =  0.529177249)

 C2V symmetry detected

          ------
          auto-z
          ------
  no constraints, skipping    0.0000000000000000     
  no constraints, skipping    0.0000000000000000     


                             Geometry "geometry" -> ""
                             -------------------------

 Output coordinates in angstroms (scale by  1.889725989 to convert to a.u.)

  No.       Tag          Charge          X              Y              Z
 ---- ---------------- ---------- -------------- -------------- --------------
    1 O                    8.0000     0.00000000     0.00000000    -0.23256398
    2 C                    6.0000    -1.17572811     0.00000000     0.52030876
    3 C                    6.0000     1.17572811     0.00000000     0.52030876
    4 C                    6.0000    -2.35878452     0.00000000    -0.42412162
    5 C                    6.0000     2.35878452     0.00000000    -0.42412162
    6 H                    1.0000    -1.20754240     0.88298938     1.17165772
    7 H                    1.0000    -1.20754240    -0.88298938     1.17165772
    8 H                    1.0000     1.20754240    -0.88298938     1.17165772
    9 H                    1.0000     1.20754240     0.88298938     1.17165772
   10 H                    1.0000    -3.29612084     0.00000000     0.13663380
   11 H                    1.0000    -2.33527916    -0.88415659    -1.06340807
   12 H                    1.0000    -2.33527916     0.88415659    -1.06340807
   13 H                    1.0000     3.29612084     0.00000000     0.13663380
   14 H                    1.0000     2.33527916    -0.88415659    -1.06340807
   15 H                    1.0000     2.33527916     0.88415659    -1.06340807

      Atomic Mass 
      ----------- 

      O                 15.994910
      C                 12.000000
      H                  1.007825


 Effective nuclear repulsion energy (a.u.)     190.8378039837

            Nuclear Dipole moment (a.u.) 
            ----------------------------
        X                 Y               Z
 ---------------- ---------------- ----------------
     0.0000000000     0.0000000000    -0.0000000000

      Symmetry information
      --------------------

 Group name             C2v       
 Group number             16
 Group order               4
 No. of unique centers     6

      Symmetry unique atoms

     1    2    4    6   10   11



                                Z-matrix (autoz)
                                -------- 

 Units are Angstrom for bonds and degrees for angles

      Type          Name      I     J     K     L     M      Value
      ----------- --------  ----- ----- ----- ----- ----- ----------
    1 Stretch                  1     2                       1.39612
    2 Stretch                  1     3                       1.39612
    3 Stretch                  2     4                       1.51379
    4 Stretch                  2     6                       1.09770
    5 Stretch                  2     7                       1.09770
    6 Stretch                  3     5                       1.51379
    7 Stretch                  3     8                       1.09770
    8 Stretch                  3     9                       1.09770
    9 Stretch                  4    10                       1.09227
   10 Stretch                  4    11                       1.09132
   11 Stretch                  4    12                       1.09132
   12 Stretch                  5    13                       1.09227
   13 Stretch                  5    14                       1.09132
   14 Stretch                  5    15                       1.09132
   15 Bend                     1     2     4               108.76644
   16 Bend                     1     2     6               110.14473
   17 Bend                     1     2     7               110.14473
   18 Bend                     1     3     5               108.76644
   19 Bend                     1     3     8               110.14473
   20 Bend                     1     3     9               110.14473
   21 Bend                     2     1     3               114.73339
   22 Bend                     2     4    10               110.51004
   23 Bend                     2     4    11               110.40379
   24 Bend                     2     4    12               110.40379
   25 Bend                     3     5    13               110.51004
   26 Bend                     3     5    14               110.40379
   27 Bend                     3     5    15               110.40379
   28 Bend                     4     2     6               110.33741
   29 Bend                     4     2     7               110.33741
   30 Bend                     5     3     8               110.33741
   31 Bend                     5     3     9               110.33741
   32 Bend                     6     2     7               107.10509
   33 Bend                     8     3     9               107.10509
   34 Bend                    10     4    11               108.61590
   35 Bend                    10     4    12               108.61590
   36 Bend                    11     4    12               108.22587
   37 Bend                    13     5    14               108.61590
   38 Bend                    13     5    15               108.61590
   39 Bend                    14     5    15               108.22587
   40 Torsion                  1     2     4    10         180.00000
   41 Torsion                  1     2     4    11          59.81516
   42 Torsion                  1     2     4    12         -59.81516
   43 Torsion                  1     3     5    13         180.00000
   44 Torsion                  1     3     5    14         -59.81516
   45 Torsion                  1     3     5    15          59.81516
   46 Torsion                  2     1     3     5         180.00000
   47 Torsion                  2     1     3     8          58.96108
   48 Torsion                  2     1     3     9         -58.96108
   49 Torsion                  3     1     2     4         180.00000
   50 Torsion                  3     1     2     6          58.96108
   51 Torsion                  3     1     2     7         -58.96108
   52 Torsion                  6     2     4    10         -59.07942
   53 Torsion                  6     2     4    11        -179.26426
   54 Torsion                  6     2     4    12          61.10542
   55 Torsion                  7     2     4    10          59.07942
   56 Torsion                  7     2     4    11         -61.10542
   57 Torsion                  7     2     4    12         179.26426
   58 Torsion                  8     3     5    13         -59.07942
   59 Torsion                  8     3     5    14          61.10542
   60 Torsion                  8     3     5    15        -179.26426
   61 Torsion                  9     3     5    13          59.07942
   62 Torsion                  9     3     5    14         179.26426
   63 Torsion                  9     3     5    15         -61.10542


            XYZ format geometry
            -------------------
    15
 geometry
 O                     0.00000000     0.00000000    -0.23256398
 C                    -1.17572811     0.00000000     0.52030876
 C                     1.17572811     0.00000000     0.52030876
 C                    -2.35878452     0.00000000    -0.42412162
 C                     2.35878452     0.00000000    -0.42412162
 H                    -1.20754240     0.88298938     1.17165772
 H                    -1.20754240    -0.88298938     1.17165772
 H                     1.20754240    -0.88298938     1.17165772
 H                     1.20754240     0.88298938     1.17165772
 H                    -3.29612084     0.00000000     0.13663380
 H                    -2.33527916    -0.88415659    -1.06340807
 H                    -2.33527916     0.88415659    -1.06340807
 H                     3.29612084     0.00000000     0.13663380
 H                     2.33527916    -0.88415659    -1.06340807
 H                     2.33527916     0.88415659    -1.06340807

 ==============================================================================
                                internuclear distances
 ------------------------------------------------------------------------------
       center one      |      center two      | atomic units |  angstroms
 ------------------------------------------------------------------------------
    2 C                |   1 O                |     2.63829  |     1.39612
    3 C                |   1 O                |     2.63829  |     1.39612
    4 C                |   2 C                |     2.86066  |     1.51379
    5 C                |   3 C                |     2.86066  |     1.51379
    6 H                |   2 C                |     2.07435  |     1.09770
    7 H                |   2 C                |     2.07435  |     1.09770
    8 H                |   3 C                |     2.07435  |     1.09770
    9 H                |   3 C                |     2.07435  |     1.09770
   10 H                |   4 C                |     2.06408  |     1.09227
   11 H                |   4 C                |     2.06229  |     1.09132
   12 H                |   4 C                |     2.06229  |     1.09132
   13 H                |   5 C                |     2.06408  |     1.09227
   14 H                |   5 C                |     2.06229  |     1.09132
   15 H                |   5 C                |     2.06229  |     1.09132
 ------------------------------------------------------------------------------
                         number of included internuclear distances:         14
 ==============================================================================



 ==============================================================================
                                 internuclear angles
 ------------------------------------------------------------------------------
        center 1       |       center 2       |       center 3       |  degrees
 ------------------------------------------------------------------------------
    2 C                |   1 O                |   3 C                |   114.73
    1 O                |   2 C                |   4 C                |   108.77
    1 O                |   2 C                |   6 H                |   110.14
    1 O                |   2 C                |   7 H                |   110.14
    4 C                |   2 C                |   6 H                |   110.34
    4 C                |   2 C                |   7 H                |   110.34
    6 H                |   2 C                |   7 H                |   107.11
    1 O                |   3 C                |   5 C                |   108.77
    1 O                |   3 C                |   8 H                |   110.14
    1 O                |   3 C                |   9 H                |   110.14
    5 C                |   3 C                |   8 H                |   110.34
    5 C                |   3 C                |   9 H                |   110.34
    8 H                |   3 C                |   9 H                |   107.11
    2 C                |   4 C                |  10 H                |   110.51
    2 C                |   4 C                |  11 H                |   110.40
    2 C                |   4 C                |  12 H                |   110.40
   10 H                |   4 C                |  11 H                |   108.62
   10 H                |   4 C                |  12 H                |   108.62
   11 H                |   4 C                |  12 H                |   108.23
    3 C                |   5 C                |  13 H                |   110.51
    3 C                |   5 C                |  14 H                |   110.40
    3 C                |   5 C                |  15 H                |   110.40
   13 H                |   5 C                |  14 H                |   108.62
   13 H                |   5 C                |  15 H                |   108.62
   14 H                |   5 C                |  15 H                |   108.23
 ------------------------------------------------------------------------------
                            number of included internuclear angles:         25
 ==============================================================================



  library name resolved from: .nwchemrc
  library file name is: </opt/homebrew/Cellar/nwchem/7.2.2/share/nwchem/libraries/>
  


 Summary of "ao basis" -> "" (spherical)
 ------------------------------------------------------------------------------
       Tag                 Description            Shells   Functions and Types
 ---------------- ------------------------------  ------  ---------------------
 *                        aug-cc-pVDZ                 on all atoms 


                      Basis "ao basis" -> "ao basis" (spherical)
                      -----
  O (Oxygen)
  ----------
            Exponent  Coefficients 
       -------------- ---------------------------------------------------------
  1 S  1.17200000E+04  0.000710
  1 S  1.75900000E+03  0.005470
  1 S  4.00800000E+02  0.027837
  1 S  1.13700000E+02  0.104800
  1 S  3.70300000E+01  0.283062
  1 S  1.32700000E+01  0.448719
  1 S  5.02500000E+00  0.270952
  1 S  1.01300000E+00  0.015458

  2 S  1.17200000E+04 -0.000160
  2 S  1.75900000E+03 -0.001263
  2 S  4.00800000E+02 -0.006267
  2 S  1.13700000E+02 -0.025716
  2 S  3.70300000E+01 -0.070924
  2 S  1.32700000E+01 -0.165411
  2 S  5.02500000E+00 -0.116955
  2 S  1.01300000E+00  0.557368

  3 S  3.02300000E-01  1.000000

  4 S  7.89600000E-02  1.000000

  5 P  1.77000000E+01  0.043018
  5 P  3.85400000E+00  0.228913
  5 P  1.04600000E+00  0.508728

  6 P  2.75300000E-01  1.000000

  7 P  6.85600000E-02  1.000000

  8 D  1.18500000E+00  1.000000

  9 D  3.32000000E-01  1.000000

  C (Carbon)
  ----------
            Exponent  Coefficients 
       -------------- ---------------------------------------------------------
  1 S  6.66500000E+03  0.000692
  1 S  1.00000000E+03  0.005329
  1 S  2.28000000E+02  0.027077
  1 S  6.47100000E+01  0.101718
  1 S  2.10600000E+01  0.274740
  1 S  7.49500000E+00  0.448564
  1 S  2.79700000E+00  0.285074
  1 S  5.21500000E-01  0.015204

  2 S  6.66500000E+03 -0.000146
  2 S  1.00000000E+03 -0.001154
  2 S  2.28000000E+02 -0.005725
  2 S  6.47100000E+01 -0.023312
  2 S  2.10600000E+01 -0.063955
  2 S  7.49500000E+00 -0.149981
  2 S  2.79700000E+00 -0.127262
  2 S  5.21500000E-01  0.544529

  3 S  1.59600000E-01  1.000000

  4 S  4.69000000E-02  1.000000

  5 P  9.43900000E+00  0.038109
  5 P  2.00200000E+00  0.209480
  5 P  5.45600000E-01  0.508557

  6 P  1.51700000E-01  1.000000

  7 P  4.04100000E-02  1.000000

  8 D  5.50000000E-01  1.000000

  9 D  1.51000000E-01  1.000000

  H (Hydrogen)
  ------------
            Exponent  Coefficients 
       -------------- ---------------------------------------------------------
  1 S  1.30100000E+01  0.019685
  1 S  1.96200000E+00  0.137977
  1 S  4.44600000E-01  0.478148

  2 S  1.22000000E-01  1.000000

  3 S  2.97400000E-02  1.000000

  4 P  7.27000000E-01  1.000000

  5 P  1.41000000E-01  1.000000



 Summary of "ao basis" -> "ao basis" (spherical)
 ------------------------------------------------------------------------------
       Tag                 Description            Shells   Functions and Types
 ---------------- ------------------------------  ------  ---------------------
 O                        aug-cc-pVDZ                9       23   4s3p2d
 C                        aug-cc-pVDZ                9       23   4s3p2d
 H                        aug-cc-pVDZ                5        9   3s2p


                                 NWChem SCF Module
                                 -----------------


                                   diethylether



  ao basis        = "ao basis"
  functions       =   205
  atoms           =    15
  closed shells   =    21
  open shells     =     0
  charge          =   0.00
  wavefunction    = RHF 
  input vectors   = atomic
  output vectors  = ./molecule.movecs
  use symmetry    = T
  symmetry adapt  = T


 Summary of "ao basis" -> "ao basis" (spherical)
 ------------------------------------------------------------------------------
       Tag                 Description            Shells   Functions and Types
 ---------------- ------------------------------  ------  ---------------------
 O                        aug-cc-pVDZ                9       23   4s3p2d
 C                        aug-cc-pVDZ                9       23   4s3p2d
 H                        aug-cc-pVDZ                5        9   3s2p


      Symmetry analysis of basis
      --------------------------

        a1         68
        a2         36
        b1         62
        b2         39


 Forming initial guess at       0.1s


      Superposition of Atomic Density Guess
      -------------------------------------

 Sum of atomic energies:        -230.42824875

      Non-variational initial energy
      ------------------------------

 Total energy =    -233.814942
 1-e energy   =    -687.605535
 2-e energy   =     262.952788
 HOMO         =      -0.337735
 LUMO         =       0.022490


      Symmetry analysis of molecular orbitals - initial
      -------------------------------------------------

  Numbering of irreducible representations: 

     1 a1          2 a2          3 b1          4 b2      

  Orbital symmetries:

     1 a1          2 b1          3 a1          4 a1          5 b1      
     6 a1          7 b1          8 a1          9 b1         10 a1      
    11 b2         12 b1         13 a1         14 a2         15 a1      
    16 b2         17 b1         18 b1         19 a1         20 a2      
    21 b2         22 a1         23 b1         24 a1         25 b2      
    26 a1         27 b1         28 a2         29 b2         30 b1      
    31 a2      


 Starting SCF solution at       0.6s



 ----------------------------------------------
         Quadratically convergent ROHF

 Convergence threshold     :          1.000E-04
 Maximum no. of iterations :           30
 Final Fock-matrix accuracy:          1.000E-07
 ----------------------------------------------


 Integral file          = ./molecule.aoints.0
 Record size in doubles =  65536        No. of integs per rec  =  43688
 Max. records in memory =    561        Max. records in file   = 154294
 No. of bits per label  =      8        No. of bits per value  =     64


 #quartets = 2.850D+06 #integrals = 5.296D+07 #direct =  0.0% #cached =100.0%


File balance: exchanges=     3  moved=   166  time=   0.0


              iter       energy          gnorm     gmax       time
             ----- ------------------- --------- --------- --------
                 1     -232.1054254790  9.62D-01  1.48D-01      2.3
                 2     -232.1652343481  4.12D-01  6.81D-02      2.5
                 3     -232.1753646744  2.37D-02  3.76D-03      2.9
                 4     -232.1754183782  4.66D-04  6.58D-05      3.3
                 5     -232.1754184025  3.55D-06  6.16D-07      4.0


       Final RHF  results 
       ------------------ 

         Total SCF energy =   -232.175418402486
      One-electron energy =   -692.744453772365
      Two-electron energy =    269.731231386181
 Nuclear repulsion energy =    190.837803983699

        Time for solution =      3.4s



       Symmetry analysis of molecular orbitals - final
       -----------------------------------------------

  Numbering of irreducible representations: 

     1 a1          2 a2          3 b1          4 b2      

  Orbital symmetries:

     1 a1          2 b1          3 a1          4 b1          5 a1      
     6 a1          7 b1          8 a1          9 b1         10 a1      
    11 b2         12 b1         13 a2         14 a1         15 a1      
    16 b2         17 b1         18 b1         19 a2         20 a1      
    21 b2         22 a1         23 b1         24 a1         25 b2      
    26 a1         27 b1         28 a2         29 b2         30 b1      
    31 a2      

             Final eigenvalues
             -----------------

              1      
    1  -20.5586
    2  -11.2760
    3  -11.2760
    4  -11.2181
    5  -11.2181
    6   -1.3856
    7   -1.0458
    8   -0.9827
    9   -0.8454
   10   -0.8257
   11   -0.6782
   12   -0.6693
   13   -0.6036
   14   -0.6010
   15   -0.5475
   16   -0.5286
   17   -0.5208
   18   -0.4935
   19   -0.4846
   20   -0.4680
   21   -0.4140
   22    0.0379
   23    0.0451
   24    0.0485
   25    0.0494
   26    0.0651
   27    0.0660
   28    0.0690
   29    0.0773
   30    0.0896
   31    0.0990

                       ROHF Final Molecular Orbital Analysis
                       -------------------------------------

 Vector    6  Occ=2.000000D+00  E=-1.385562D+00  Symmetry=a1
              MO Center= -3.5D-17, -2.5D-19, -2.3D-02, r^2= 6.9D-01
   Bfn.  Coefficient  Atom+Function         Bfn.  Coefficient  Atom+Function  
  ----- ------------  ---------------      ----- ------------  ---------------
     3      0.497549   1 O  s                 2      0.397853   1 O  s         

 Vector    7  Occ=2.000000D+00  E=-1.045829D+00  Symmetry=b1
              MO Center= -2.2D-16,  9.8D-18,  4.8D-02, r^2= 4.0D+00
   Bfn.  Coefficient  Atom+Function         Bfn.  Coefficient  Atom+Function  
  ----- ------------  ---------------      ----- ------------  ---------------
    25      0.213269   2 C  s                48     -0.213269   3 C  s         
    71      0.187354   4 C  s                94     -0.187354   5 C  s         
     5     -0.159511   1 O  px        

 Vector    8  Occ=2.000000D+00  E=-9.827383D-01  Symmetry=a1
              MO Center=  7.7D-17, -1.1D-17, -1.4D-01, r^2= 5.6D+00
   Bfn.  Coefficient  Atom+Function         Bfn.  Coefficient  Atom+Function  
  ----- ------------  ---------------      ----- ------------  ---------------
    71      0.236854   4 C  s                94      0.236854   5 C  s         
     3     -0.169154   1 O  s         

 Vector    9  Occ=2.000000D+00  E=-8.453738D-01  Symmetry=b1
              MO Center= -4.0D-17, -2.0D-18, -1.2D-01, r^2= 5.6D+00
   Bfn.  Coefficient  Atom+Function         Bfn.  Coefficient  Atom+Function  
  ----- ------------  ---------------      ----- ------------  ---------------
     5      0.201125   1 O  px               71      0.194172   4 C  s         
    94     -0.194172   5 C  s                25     -0.178512   2 C  s         
    48      0.178512   3 C  s                27     -0.171987   2 C  s         
    50      0.171987   3 C  s                73      0.155658   4 C  s         
    96     -0.155658   5 C  s                 8      0.151907   1 O  px        

 Vector   10  Occ=2.000000D+00  E=-8.256942D-01  Symmetry=a1
              MO Center=  7.9D-18,  1.7D-17,  3.6D-01, r^2= 3.8D+00
   Bfn.  Coefficient  Atom+Function         Bfn.  Coefficient  Atom+Function  
  ----- ------------  ---------------      ----- ------------  ---------------
     3      0.217561   1 O  s                25     -0.185967   2 C  s         
    48     -0.185967   3 C  s                 7     -0.155139   1 O  pz        
   116     -0.154792   6 H  s               125     -0.154792   7 H  s         
   134     -0.154792   8 H  s               143     -0.154792   9 H  s         

 Vector   11  Occ=2.000000D+00  E=-6.782480D-01  Symmetry=b2
              MO Center= -3.1D-17, -3.8D-20,  3.0D-01, r^2= 2.7D+00
   Bfn.  Coefficient  Atom+Function         Bfn.  Coefficient  Atom+Function  
  ----- ------------  ---------------      ----- ------------  ---------------
     6      0.318315   1 O  py               29      0.239303   2 C  py        
    52      0.239303   3 C  py                9      0.235625   1 O  py        
   116      0.150228   6 H  s               125     -0.150228   7 H  s         
   134     -0.150228   8 H  s               143      0.150228   9 H  s         

 Vector   12  Occ=2.000000D+00  E=-6.693088D-01  Symmetry=b1
              MO Center=  1.1D-13, -3.4D-14,  3.3D-01, r^2= 3.1D+00
   Bfn.  Coefficient  Atom+Function         Bfn.  Coefficient  Atom+Function  
  ----- ------------  ---------------      ----- ------------  ---------------
     5      0.336977   1 O  px                8      0.225575   1 O  px        
    30      0.225158   2 C  pz               53     -0.225158   3 C  pz        
    27     -0.215153   2 C  s                50      0.215153   3 C  s         

 Vector   13  Occ=2.000000D+00  E=-6.035613D-01  Symmetry=a2
              MO Center=  5.1D-14, -8.1D-14,  6.3D-02, r^2= 5.1D+00
   Bfn.  Coefficient  Atom+Function         Bfn.  Coefficient  Atom+Function  
  ----- ------------  ---------------      ----- ------------  ---------------
    29      0.229090   2 C  py               52     -0.229090   3 C  py        
    75      0.215114   4 C  py               98     -0.215114   5 C  py        
   116      0.156573   6 H  s               125     -0.156573   7 H  s         
   134      0.156573   8 H  s               143     -0.156573   9 H  s         
   161     -0.150248  11 H  s               170      0.150248  12 H  s         

 Vector   14  Occ=2.000000D+00  E=-6.009637D-01  Symmetry=a1
              MO Center= -1.3D-13, -1.3D-14, -1.6D-01, r^2= 4.1D+00
   Bfn.  Coefficient  Atom+Function         Bfn.  Coefficient  Atom+Function  
  ----- ------------  ---------------      ----- ------------  ---------------
     7      0.339569   1 O  pz               10      0.248691   1 O  pz        
    28      0.216616   2 C  px               51     -0.216616   3 C  px        
    74     -0.194244   4 C  px               97      0.194244   5 C  px        

 Vector   15  Occ=2.000000D+00  E=-5.475052D-01  Symmetry=a1
              MO Center=  1.0D-15, -1.5D-18, -3.2D-01, r^2= 8.0D+00
   Bfn.  Coefficient  Atom+Function         Bfn.  Coefficient  Atom+Function  
  ----- ------------  ---------------      ----- ------------  ---------------
   152      0.260442  10 H  s               179      0.260442  13 H  s         
    76      0.227478   4 C  pz               99      0.227478   5 C  pz        
   153      0.203671  10 H  s               180      0.203671  13 H  s         
    74     -0.191351   4 C  px               97      0.191351   5 C  px        

 Vector   16  Occ=2.000000D+00  E=-5.286410D-01  Symmetry=b2
              MO Center= -2.2D-14,  5.1D-15, -6.2D-01, r^2= 6.0D+00
   Bfn.  Coefficient  Atom+Function         Bfn.  Coefficient  Atom+Function  
  ----- ------------  ---------------      ----- ------------  ---------------
    75      0.282119   4 C  py               98      0.282119   5 C  py        
     6     -0.231127   1 O  py              161     -0.216006  11 H  s         
   170      0.216006  12 H  s               188     -0.216006  14 H  s         
   197      0.216006  15 H  s                 9     -0.192272   1 O  py        
   162     -0.180722  11 H  s               171      0.180722  12 H  s         

 Vector   17  Occ=2.000000D+00  E=-5.207724D-01  Symmetry=b1
              MO Center=  1.4D-13, -5.2D-14, -2.2D-01, r^2= 7.3D+00
   Bfn.  Coefficient  Atom+Function         Bfn.  Coefficient  Atom+Function  
  ----- ------------  ---------------      ----- ------------  ---------------
   153      0.248069  10 H  s               180     -0.248069  13 H  s         
    76      0.240994   4 C  pz               99     -0.240994   5 C  pz        
   152      0.237230  10 H  s               179     -0.237230  13 H  s         
    73     -0.194761   4 C  s                96      0.194761   5 C  s         
     5     -0.167346   1 O  px               11     -0.167854   1 O  px        

 Vector   18  Occ=2.000000D+00  E=-4.934776D-01  Symmetry=b1
              MO Center=  4.6D-15, -2.0D-16,  3.7D-02, r^2= 4.9D+00
   Bfn.  Coefficient  Atom+Function         Bfn.  Coefficient  Atom+Function  
  ----- ------------  ---------------      ----- ------------  ---------------
    28      0.258707   2 C  px               51      0.258707   3 C  px        
    74     -0.250555   4 C  px               97     -0.250555   5 C  px        
     5     -0.181421   1 O  px               27     -0.177793   2 C  s         
    50      0.177793   3 C  s                30      0.157353   2 C  pz        
    53     -0.157353   3 C  pz               77     -0.157460   4 C  px        

 Vector   19  Occ=2.000000D+00  E=-4.846484D-01  Symmetry=a2
              MO Center=  4.9D-15, -5.6D-15,  3.6D-02, r^2= 5.5D+00
   Bfn.  Coefficient  Atom+Function         Bfn.  Coefficient  Atom+Function  
  ----- ------------  ---------------      ----- ------------  ---------------
   117      0.237465   6 H  s               126     -0.237465   7 H  s         
   135      0.237465   8 H  s               144     -0.237465   9 H  s         
    29      0.227162   2 C  py               52     -0.227162   3 C  py        
   162      0.218337  11 H  s               171     -0.218337  12 H  s         
   189     -0.218337  14 H  s               198      0.218337  15 H  s         

 Vector   20  Occ=2.000000D+00  E=-4.679743D-01  Symmetry=a1
              MO Center=  2.5D-15, -5.5D-16,  6.8D-02, r^2= 2.9D+00
   Bfn.  Coefficient  Atom+Function         Bfn.  Coefficient  Atom+Function  
  ----- ------------  ---------------      ----- ------------  ---------------
     7      0.403727   1 O  pz               10      0.306897   1 O  pz        
    30     -0.240378   2 C  pz               53     -0.240378   3 C  pz        

 Vector   21  Occ=2.000000D+00  E=-4.140361D-01  Symmetry=b2
              MO Center=  1.1D-16,  2.7D-17,  2.9D-01, r^2= 2.3D+00
   Bfn.  Coefficient  Atom+Function         Bfn.  Coefficient  Atom+Function  
  ----- ------------  ---------------      ----- ------------  ---------------
     6      0.495768   1 O  py                9      0.404051   1 O  py        
   116     -0.179694   6 H  s               125      0.179694   7 H  s         
   134      0.179694   8 H  s               143     -0.179694   9 H  s         
    29     -0.171079   2 C  py               52     -0.171079   3 C  py        

 Vector   22  Occ=0.000000D+00  E= 3.787510D-02  Symmetry=a1
              MO Center=  8.1D-15,  5.0D-16,  1.3D+00, r^2= 2.4D+01
   Bfn.  Coefficient  Atom+Function         Bfn.  Coefficient  Atom+Function  
  ----- ------------  ---------------      ----- ------------  ---------------
    27      1.872092   2 C  s                50      1.872092   3 C  s         
    73      1.687266   4 C  s                96      1.687266   5 C  s         
     4     -1.279753   1 O  s               154     -1.044274  10 H  s         
   181     -1.044274  13 H  s               118     -0.707331   6 H  s         
   127     -0.707331   7 H  s               136     -0.707331   8 H  s         

 Vector   23  Occ=0.000000D+00  E= 4.509514D-02  Symmetry=b1
              MO Center=  9.4D-15, -3.5D-16,  5.1D-01, r^2= 3.3D+01
   Bfn.  Coefficient  Atom+Function         Bfn.  Coefficient  Atom+Function  
  ----- ------------  ---------------      ----- ------------  ---------------
   154      2.460479  10 H  s               181     -2.460479  13 H  s         
    34      2.396188   2 C  px               57      2.396188   3 C  px        
    80      1.041785   4 C  px              103      1.041785   5 C  px        
    27     -0.807315   2 C  s                50      0.807315   3 C  s         
    36      0.726515   2 C  pz               59     -0.726515   3 C  pz        

 Vector   24  Occ=0.000000D+00  E= 4.847305D-02  Symmetry=a1
              MO Center= -6.5D-13, -2.4D-14, -9.6D-01, r^2= 2.6D+01
   Bfn.  Coefficient  Atom+Function         Bfn.  Coefficient  Atom+Function  
  ----- ------------  ---------------      ----- ------------  ---------------
   163     -1.877759  11 H  s               172     -1.877759  12 H  s         
   190     -1.877759  14 H  s               199     -1.877759  15 H  s         
    73      1.806532   4 C  s                96      1.806532   5 C  s         
    27     -1.210926   2 C  s                50     -1.210926   3 C  s         
   118      1.097805   6 H  s               127      1.097805   7 H  s         

 Vector   25  Occ=0.000000D+00  E= 4.942966D-02  Symmetry=b2
              MO Center= -3.3D-16, -9.1D-15,  5.9D-01, r^2= 2.5D+01
   Bfn.  Coefficient  Atom+Function         Bfn.  Coefficient  Atom+Function  
  ----- ------------  ---------------      ----- ------------  ---------------
   118      2.180790   6 H  s               127     -2.180790   7 H  s         
   136     -2.180790   8 H  s               145      2.180790   9 H  s         
   163     -1.387720  11 H  s               172      1.387720  12 H  s         
   190     -1.387720  14 H  s               199      1.387720  15 H  s         
    35     -1.313786   2 C  py               58     -1.313786   3 C  py        

 Vector   26  Occ=0.000000D+00  E= 6.509212D-02  Symmetry=a1
              MO Center= -4.8D-14,  9.7D-16,  8.0D-01, r^2= 3.3D+01
   Bfn.  Coefficient  Atom+Function         Bfn.  Coefficient  Atom+Function  
  ----- ------------  ---------------      ----- ------------  ---------------
   154      4.168759  10 H  s               181      4.168759  13 H  s         
    27      1.451692   2 C  s                50      1.451692   3 C  s         
   163     -1.236379  11 H  s               172     -1.236379  12 H  s         
   190     -1.236379  14 H  s               199     -1.236379  15 H  s         
    80      1.221755   4 C  px              103     -1.221755   5 C  px        

 Vector   27  Occ=0.000000D+00  E= 6.598784D-02  Symmetry=b1
              MO Center=  5.9D-13, -1.6D-15, -5.6D-01, r^2= 3.2D+01
   Bfn.  Coefficient  Atom+Function         Bfn.  Coefficient  Atom+Function  
  ----- ------------  ---------------      ----- ------------  ---------------
   163     -2.636416  11 H  s               172     -2.636416  12 H  s         
   190      2.636416  14 H  s               199      2.636416  15 H  s         
   118      2.477858   6 H  s               127      2.477858   7 H  s         
   136     -2.477858   8 H  s               145     -2.477858   9 H  s         
    36     -1.817665   2 C  pz               59      1.817665   3 C  pz        

 Vector   28  Occ=0.000000D+00  E= 6.899930D-02  Symmetry=a2
              MO Center= -1.9D-14, -5.7D-14,  5.6D-02, r^2= 3.0D+01
   Bfn.  Coefficient  Atom+Function         Bfn.  Coefficient  Atom+Function  
  ----- ------------  ---------------      ----- ------------  ---------------
   118      4.023937   6 H  s               127     -4.023937   7 H  s         
   136      4.023937   8 H  s               145     -4.023937   9 H  s         
   163     -2.349092  11 H  s               172      2.349092  12 H  s         
   190      2.349092  14 H  s               199     -2.349092  15 H  s         
    35     -1.786640   2 C  py               58      1.786640   3 C  py        

 Vector   29  Occ=0.000000D+00  E= 7.725033D-02  Symmetry=b2
              MO Center=  1.1D-15, -1.3D-15, -3.4D-01, r^2= 2.6D+01
   Bfn.  Coefficient  Atom+Function         Bfn.  Coefficient  Atom+Function  
  ----- ------------  ---------------      ----- ------------  ---------------
   163      3.038484  11 H  s               172     -3.038484  12 H  s         
   190      3.038484  14 H  s               199     -3.038484  15 H  s         
   118      2.748565   6 H  s               127     -2.748565   7 H  s         
   136     -2.748565   8 H  s               145      2.748565   9 H  s         
    35     -1.710284   2 C  py               58     -1.710284   3 C  py        

 Vector   30  Occ=0.000000D+00  E= 8.957043D-02  Symmetry=b1
              MO Center=  1.6D-14, -2.3D-14,  7.9D-01, r^2= 3.3D+01
   Bfn.  Coefficient  Atom+Function         Bfn.  Coefficient  Atom+Function  
  ----- ------------  ---------------      ----- ------------  ---------------
    27      7.545497   2 C  s                50     -7.545497   3 C  s         
   154      5.072003  10 H  s               181     -5.072003  13 H  s         
   118     -3.033314   6 H  s               127     -3.033314   7 H  s         
   136      3.033314   8 H  s               145      3.033314   9 H  s         
    11      1.780432   1 O  px              163     -1.754420  11 H  s         

 Vector   31  Occ=0.000000D+00  E= 9.900289D-02  Symmetry=a2
              MO Center= -2.2D-14, -1.4D-14, -1.7D-01, r^2= 3.1D+01
   Bfn.  Coefficient  Atom+Function         Bfn.  Coefficient  Atom+Function  
  ----- ------------  ---------------      ----- ------------  ---------------
   118      6.315841   6 H  s               127     -6.315841   7 H  s         
   136      6.315841   8 H  s               145     -6.315841   9 H  s         
   163      4.479271  11 H  s               172     -4.479271  12 H  s         
   190     -4.479271  14 H  s               199      4.479271  15 H  s         
    35     -3.444621   2 C  py               58      3.444621   3 C  py        

 Vector   32  Occ=0.000000D+00  E= 1.208122D-01  Symmetry=a1
              MO Center= -4.0D-14, -3.3D-17, -9.7D-02, r^2= 1.9D+01
   Bfn.  Coefficient  Atom+Function         Bfn.  Coefficient  Atom+Function  
  ----- ------------  ---------------      ----- ------------  ---------------
    27      3.316318   2 C  s                50      3.316318   3 C  s         
    73     -3.134599   4 C  s                96     -3.134599   5 C  s         
    82     -2.178181   4 C  pz              105     -2.178181   5 C  pz        
     4      1.930678   1 O  s                34     -1.606995   2 C  px        
    57      1.606995   3 C  px              153      1.161392  10 H  s         

 Vector   33  Occ=0.000000D+00  E= 1.320791D-01  Symmetry=a1
              MO Center=  3.0D-13, -6.1D-15, -9.1D-01, r^2= 2.4D+01
   Bfn.  Coefficient  Atom+Function         Bfn.  Coefficient  Atom+Function  
  ----- ------------  ---------------      ----- ------------  ---------------
    27     10.198512   2 C  s                50     10.198512   3 C  s         
    73     -8.631498   4 C  s                96     -8.631498   5 C  s         
    80     -5.440079   4 C  px              103      5.440079   5 C  px        
   154     -3.495532  10 H  s               181     -3.495532  13 H  s         
    36     -3.417653   2 C  pz               59     -3.417653   3 C  pz        

 Vector   34  Occ=0.000000D+00  E= 1.453780D-01  Symmetry=b1
              MO Center= -2.7D-13,  4.3D-14, -5.7D-01, r^2= 2.3D+01
   Bfn.  Coefficient  Atom+Function         Bfn.  Coefficient  Atom+Function  
  ----- ------------  ---------------      ----- ------------  ---------------
    73     11.589092   4 C  s                96    -11.589092   5 C  s         
    34     11.212764   2 C  px               57     11.212764   3 C  px        
    82      5.496596   4 C  pz              105     -5.496596   5 C  pz        
    11      2.601256   1 O  px               80      2.375017   4 C  px        
   103      2.375017   5 C  px              163      2.229452  11 H  s         

 Vector   35  Occ=0.000000D+00  E= 1.584213D-01  Symmetry=b2
              MO Center= -6.0D-15, -2.4D-14,  1.3D-01, r^2= 2.1D+01
   Bfn.  Coefficient  Atom+Function         Bfn.  Coefficient  Atom+Function  
  ----- ------------  ---------------      ----- ------------  ---------------
    81      3.515262   4 C  py              104      3.515262   5 C  py        
    35     -2.885187   2 C  py               58     -2.885187   3 C  py        
   163      2.306485  11 H  s               172     -2.306485  12 H  s         
   190      2.306485  14 H  s               199     -2.306485  15 H  s         
   162      1.765109  11 H  s               171     -1.765109  12 H  s         

 Vector   36  Occ=0.000000D+00  E= 1.613543D-01  Symmetry=a1
              MO Center=  2.2D-13,  1.4D-13,  3.7D-01, r^2= 2.1D+01
   Bfn.  Coefficient  Atom+Function         Bfn.  Coefficient  Atom+Function  
  ----- ------------  ---------------      ----- ------------  ---------------
    73      4.486291   4 C  s                96      4.486291   5 C  s         
    27     -3.857055   2 C  s                50     -3.857055   3 C  s         
    82      3.834982   4 C  pz              105      3.834982   5 C  pz        
    34      3.214150   2 C  px               57     -3.214150   3 C  px        
   163      2.708587  11 H  s               172      2.708587  12 H  s         

 Vector   37  Occ=0.000000D+00  E= 1.622074D-01  Symmetry=b1
              MO Center= -2.8D-13,  7.1D-14, -7.9D-01, r^2= 2.8D+01
   Bfn.  Coefficient  Atom+Function         Bfn.  Coefficient  Atom+Function  
  ----- ------------  ---------------      ----- ------------  ---------------
    27     19.633678   2 C  s                50    -19.633678   3 C  s         
    73    -18.851250   4 C  s                96     18.851250   5 C  s         
    36    -10.684344   2 C  pz               59     10.684344   3 C  pz        
    80     -7.856426   4 C  px              103     -7.856426   5 C  px        
    34     -6.092353   2 C  px               57     -6.092353   3 C  px        

 Vector   38  Occ=0.000000D+00  E= 1.677367D-01  Symmetry=b2
              MO Center= -1.1D-15, -1.4D-14,  5.0D-01, r^2= 1.9D+01
   Bfn.  Coefficient  Atom+Function         Bfn.  Coefficient  Atom+Function  
  ----- ------------  ---------------      ----- ------------  ---------------
   118     -2.973675   6 H  s               127      2.973675   7 H  s         
   136      2.973675   8 H  s               145     -2.973675   9 H  s         
    35      2.841227   2 C  py               58      2.841227   3 C  py        
   163      2.029638  11 H  s               172     -2.029638  12 H  s         
   190      2.029638  14 H  s               199     -2.029638  15 H  s         

 Vector   39  Occ=0.000000D+00  E= 1.713458D-01  Symmetry=a1
              MO Center=  8.5D-14, -5.6D-15,  1.2D+00, r^2= 1.7D+01
   Bfn.  Coefficient  Atom+Function         Bfn.  Coefficient  Atom+Function  
  ----- ------------  ---------------      ----- ------------  ---------------
    73     -4.427072   4 C  s                96     -4.427072   5 C  s         
    27      4.202168   2 C  s                50      4.202168   3 C  s         
    34     -3.806436   2 C  px               57      3.806436   3 C  px        
   154     -3.167237  10 H  s               181     -3.167237  13 H  s         
     4      2.517182   1 O  s                80     -1.584450   4 C  px        

 Vector   40  Occ=0.000000D+00  E= 1.727447D-01  Symmetry=b1
              MO Center=  7.1D-13,  3.2D-14,  1.6D+00, r^2= 2.1D+01
   Bfn.  Coefficient  Atom+Function         Bfn.  Coefficient  Atom+Function  
  ----- ------------  ---------------      ----- ------------  ---------------
    34      8.408156   2 C  px               57      8.408156   3 C  px        
   118      3.111714   6 H  s               127      3.111714   7 H  s         
   136     -3.111714   8 H  s               145     -3.111714   9 H  s         
    73      2.820801   4 C  s                96     -2.820801   5 C  s         
   153      1.696382  10 H  s               180     -1.696382  13 H  s         

 Vector   41  Occ=0.000000D+00  E= 1.762309D-01  Symmetry=a1
              MO Center= -5.0D-13,  2.9D-14, -1.1D-01, r^2= 2.0D+01
   Bfn.  Coefficient  Atom+Function         Bfn.  Coefficient  Atom+Function  
  ----- ------------  ---------------      ----- ------------  ---------------
    27      7.310992   2 C  s                50      7.310992   3 C  s         
     4     -3.593600   1 O  s                82     -1.567027   4 C  pz        
   105     -1.567027   5 C  pz              117     -1.440381   6 H  s         
   126     -1.440381   7 H  s               135     -1.440381   8 H  s         
   144     -1.440381   9 H  s                72      1.363660   4 C  s         

 Vector   42  Occ=0.000000D+00  E= 1.886632D-01  Symmetry=a2
              MO Center= -1.7D-14,  1.3D-13, -2.1D-01, r^2= 2.6D+01
   Bfn.  Coefficient  Atom+Function         Bfn.  Coefficient  Atom+Function  
  ----- ------------  ---------------      ----- ------------  ---------------
    81      5.250462   4 C  py              104     -5.250462   5 C  py        
   163      4.885361  11 H  s               172     -4.885361  12 H  s         
   190     -4.885361  14 H  s               199      4.885361  15 H  s         
   162      2.274864  11 H  s               171     -2.274864  12 H  s         
   189     -2.274864  14 H  s               198      2.274864  15 H  s         

 Vector   43  Occ=0.000000D+00  E= 1.952222D-01  Symmetry=b1
              MO Center= -4.2D-13, -1.7D-13, -7.8D-01, r^2= 2.1D+01
   Bfn.  Coefficient  Atom+Function         Bfn.  Coefficient  Atom+Function  
  ----- ------------  ---------------      ----- ------------  ---------------
    34      8.817126   2 C  px               57      8.817126   3 C  px        
    73      8.404381   4 C  s                96     -8.404381   5 C  s         
    36      5.310635   2 C  pz               59     -5.310635   3 C  pz        
    82      4.374759   4 C  pz              105     -4.374759   5 C  pz        
   163      3.270107  11 H  s               172      3.270107  12 H  s         

 Vector   44  Occ=0.000000D+00  E= 2.147905D-01  Symmetry=a2
              MO Center= -1.7D-15,  3.6D-15,  8.6D-01, r^2= 1.9D+01
   Bfn.  Coefficient  Atom+Function         Bfn.  Coefficient  Atom+Function  
  ----- ------------  ---------------      ----- ------------  ---------------
    35      8.848779   2 C  py               58     -8.848779   3 C  py        
   118     -7.193128   6 H  s               127      7.193128   7 H  s         
   136     -7.193128   8 H  s               145      7.193128   9 H  s         
    81     -3.640930   4 C  py              104      3.640930   5 C  py        
   117     -2.495491   6 H  s               126      2.495491   7 H  s         

 Vector   45  Occ=0.000000D+00  E= 2.225677D-01  Symmetry=a1
              MO Center=  2.5D-13, -8.8D-16,  4.1D-01, r^2= 2.1D+01
   Bfn.  Coefficient  Atom+Function         Bfn.  Coefficient  Atom+Function  
  ----- ------------  ---------------      ----- ------------  ---------------
    27     24.661654   2 C  s                50     24.661654   3 C  s         
    73    -23.613857   4 C  s                96    -23.613857   5 C  s         
    34     -6.534131   2 C  px               57      6.534131   3 C  px        
    82     -4.725733   4 C  pz              105     -4.725733   5 C  pz        
     4     -4.355636   1 O  s                36     -3.993886   2 C  pz        

 Vector   46  Occ=0.000000D+00  E= 2.331966D-01  Symmetry=b1
              MO Center=  5.2D-13,  1.6D-13,  1.1D+00, r^2= 1.9D+01
   Bfn.  Coefficient  Atom+Function         Bfn.  Coefficient  Atom+Function  
  ----- ------------  ---------------      ----- ------------  ---------------
    27     22.016438   2 C  s                50    -22.016438   3 C  s         
    34     10.695544   2 C  px               57     10.695544   3 C  px        
    11      4.564728   1 O  px              154      4.174204  10 H  s         
   181     -4.174204  13 H  s               117     -3.373963   6 H  s         
   126     -3.373963   7 H  s               135      3.373963   8 H  s         

 Vector   47  Occ=0.000000D+00  E= 2.591343D-01  Symmetry=b1
              MO Center=  9.3D-13, -7.2D-14,  2.7D-01, r^2= 2.4D+01
   Bfn.  Coefficient  Atom+Function         Bfn.  Coefficient  Atom+Function  
  ----- ------------  ---------------      ----- ------------  ---------------
    73     53.379633   4 C  s                96    -53.379633   5 C  s         
    27    -30.114842   2 C  s                50     30.114842   3 C  s         
    34     27.215669   2 C  px               57     27.215669   3 C  px        
    36     16.651605   2 C  pz               59    -16.651605   3 C  pz        
    82      9.501621   4 C  pz              105     -9.501621   5 C  pz        

 Vector   48  Occ=0.000000D+00  E= 2.657542D-01  Symmetry=a1
              MO Center= -3.0D-13, -1.8D-14, -4.3D-01, r^2= 1.5D+01
   Bfn.  Coefficient  Atom+Function         Bfn.  Coefficient  Atom+Function  
  ----- ------------  ---------------      ----- ------------  ---------------
    27     11.412855   2 C  s                50     11.412855   3 C  s         
    73    -11.134726   4 C  s                96    -11.134726   5 C  s         
     4     -4.565472   1 O  s                80     -4.028649   4 C  px        
   103      4.028649   5 C  px               13     -3.662007   1 O  pz        
   154     -3.120037  10 H  s               181     -3.120037  13 H  s         

 Vector   49  Occ=0.000000D+00  E= 2.831537D-01  Symmetry=b2
              MO Center=  3.2D-16, -6.3D-14, -7.0D-01, r^2= 1.2D+01
   Bfn.  Coefficient  Atom+Function         Bfn.  Coefficient  Atom+Function  
  ----- ------------  ---------------      ----- ------------  ---------------
    35     -2.430731   2 C  py               58     -2.430731   3 C  py        
    12      2.362941   1 O  py              118      2.128801   6 H  s         
   127     -2.128801   7 H  s               136     -2.128801   8 H  s         
   145      2.128801   9 H  s               163      1.849559  11 H  s         
   172     -1.849559  12 H  s               190      1.849559  14 H  s         

 Vector   50  Occ=0.000000D+00  E= 2.901323D-01  Symmetry=b2
              MO Center=  6.0D-16, -3.1D-14,  4.7D-01, r^2= 8.6D+00
   Bfn.  Coefficient  Atom+Function         Bfn.  Coefficient  Atom+Function  
  ----- ------------  ---------------      ----- ------------  ---------------
   117      1.072134   6 H  s               126     -1.072134   7 H  s         
   135     -1.072134   8 H  s               144      1.072134   9 H  s         
   162     -1.037895  11 H  s               171      1.037895  12 H  s         
   189     -1.037895  14 H  s               198      1.037895  15 H  s         
    12     -0.866345   1 O  py               78     -0.514522   4 C  py        

 Vector   51  Occ=0.000000D+00  E= 3.046623D-01  Symmetry=a2
              MO Center=  5.3D-17,  5.2D-15, -8.8D-01, r^2= 1.2D+01
   Bfn.  Coefficient  Atom+Function         Bfn.  Coefficient  Atom+Function  
  ----- ------------  ---------------      ----- ------------  ---------------
   118      2.164083   6 H  s               127     -2.164083   7 H  s         
   136      2.164083   8 H  s               145     -2.164083   9 H  s         
   163      2.012015  11 H  s               172     -2.012015  12 H  s         
   190     -2.012015  14 H  s               199      2.012015  15 H  s         
    35     -1.542789   2 C  py               58      1.542789   3 C  py        

 Vector   52  Occ=0.000000D+00  E= 3.097477D-01  Symmetry=a1
              MO Center=  3.3D-12,  8.6D-13,  2.5D-01, r^2= 1.1D+01
   Bfn.  Coefficient  Atom+Function         Bfn.  Coefficient  Atom+Function  
  ----- ------------  ---------------      ----- ------------  ---------------
    27      9.447017   2 C  s                50      9.447017   3 C  s         
     4     -7.747261   1 O  s                73     -7.286009   4 C  s         
    96     -7.286009   5 C  s                80     -3.215081   4 C  px        
   103      3.215081   5 C  px               13     -3.115720   1 O  pz        
    36     -2.261627   2 C  pz               59     -2.261627   3 C  pz        

 Vector   53  Occ=0.000000D+00  E= 3.271365D-01  Symmetry=b1
              MO Center=  7.8D-13, -4.5D-13, -1.5D-01, r^2= 1.4D+01
   Bfn.  Coefficient  Atom+Function         Bfn.  Coefficient  Atom+Function  
  ----- ------------  ---------------      ----- ------------  ---------------
    27      7.980484   2 C  s                50     -7.980484   3 C  s         
    73     -4.875409   4 C  s                96      4.875409   5 C  s         
    36     -3.571256   2 C  pz               59      3.571256   3 C  pz        
   118      2.474517   6 H  s               127      2.474517   7 H  s         
   136     -2.474517   8 H  s               145     -2.474517   9 H  s         

 Vector   54  Occ=0.000000D+00  E= 3.425186D-01  Symmetry=a2
              MO Center=  2.0D-15, -1.0D-14,  4.2D-01, r^2= 9.2D+00
   Bfn.  Coefficient  Atom+Function         Bfn.  Coefficient  Atom+Function  
  ----- ------------  ---------------      ----- ------------  ---------------
    35      1.672947   2 C  py               58     -1.672947   3 C  py        
   162      1.160863  11 H  s               171     -1.160863  12 H  s         
   189     -1.160863  14 H  s               198      1.160863  15 H  s         
   118     -1.104772   6 H  s               127      1.104772   7 H  s         
   136     -1.104772   8 H  s               145      1.104772   9 H  s         

 Vector   55  Occ=0.000000D+00  E= 3.441111D-01  Symmetry=a1
              MO Center= -2.7D-13,  4.9D-14, -2.2D-01, r^2= 1.1D+01
   Bfn.  Coefficient  Atom+Function         Bfn.  Coefficient  Atom+Function  
  ----- ------------  ---------------      ----- ------------  ---------------
    27      6.773587   2 C  s                50      6.773587   3 C  s         
    73     -6.598223   4 C  s                96     -6.598223   5 C  s         
    34     -2.857094   2 C  px               57      2.857094   3 C  px        
     4      2.330910   1 O  s                80     -2.170624   4 C  px        
   103      2.170624   5 C  px               82     -1.394035   4 C  pz        

 Vector   56  Occ=0.000000D+00  E= 3.686777D-01  Symmetry=b1
              MO Center=  2.3D-12,  9.0D-14,  1.1D-01, r^2= 1.2D+01
   Bfn.  Coefficient  Atom+Function         Bfn.  Coefficient  Atom+Function  
  ----- ------------  ---------------      ----- ------------  ---------------
    27      9.092987   2 C  s                50     -9.092987   3 C  s         
    11      5.536138   1 O  px               34      5.261201   2 C  px        
    57      5.261201   3 C  px               36     -3.096060   2 C  pz        
    59      3.096060   3 C  pz              153     -2.257869  10 H  s         
   180      2.257869  13 H  s                82      1.822747   4 C  pz        

 Vector   57  Occ=0.000000D+00  E= 3.760722D-01  Symmetry=a1
              MO Center= -4.9D-15, -5.5D-15,  7.0D-01, r^2= 1.1D+01
   Bfn.  Coefficient  Atom+Function         Bfn.  Coefficient  Atom+Function  
  ----- ------------  ---------------      ----- ------------  ---------------
   153      2.846631  10 H  s               180      2.846631  13 H  s         
    36      2.044617   2 C  pz               59      2.044617   3 C  pz        
    13     -1.792539   1 O  pz                4      1.637425   1 O  s         
    33      1.461170   2 C  pz               56      1.461170   3 C  pz        
    34      1.407184   2 C  px               57     -1.407184   3 C  px        

 Vector   58  Occ=0.000000D+00  E= 3.841621D-01  Symmetry=b1
              MO Center= -5.7D-13,  4.1D-14, -4.2D-01, r^2= 1.2D+01
   Bfn.  Coefficient  Atom+Function         Bfn.  Coefficient  Atom+Function  
  ----- ------------  ---------------      ----- ------------  ---------------
    73     12.903107   4 C  s                96    -12.903107   5 C  s         
    27     -9.540381   2 C  s                50      9.540381   3 C  s         
    80      4.746912   4 C  px              103      4.746912   5 C  px        
    36      3.956154   2 C  pz               59     -3.956154   3 C  pz        
    11      3.897936   1 O  px               34      2.575879   2 C  px        

 Vector   59  Occ=0.000000D+00  E= 3.894737D-01  Symmetry=a1
              MO Center= -4.1D-14, -1.6D-16, -4.0D-01, r^2= 1.3D+01
   Bfn.  Coefficient  Atom+Function         Bfn.  Coefficient  Atom+Function  
  ----- ------------  ---------------      ----- ------------  ---------------
     4      5.399933   1 O  s                13      4.041767   1 O  pz        
    27     -2.806190   2 C  s                50     -2.806190   3 C  s         
    31     -1.130366   2 C  px               54      1.130366   3 C  px        
   160      1.016125  10 H  pz              187      1.016125  13 H  pz        
   117     -0.971963   6 H  s               126     -0.971963   7 H  s         

 Vector   60  Occ=0.000000D+00  E= 3.944162D-01  Symmetry=a1
              MO Center=  6.1D-13,  3.8D-14,  4.1D-01, r^2= 1.1D+01
   Bfn.  Coefficient  Atom+Function         Bfn.  Coefficient  Atom+Function  
  ----- ------------  ---------------      ----- ------------  ---------------
    27     11.511220   2 C  s                50     11.511220   3 C  s         
    73     -8.543745   4 C  s                96     -8.543745   5 C  s         
   117     -4.337936   6 H  s               126     -4.337936   7 H  s         
   135     -4.337936   8 H  s               144     -4.337936   9 H  s         
    33      2.983067   2 C  pz               56      2.983067   3 C  pz        

 Vector   61  Occ=0.000000D+00  E= 4.045594D-01  Symmetry=b2
              MO Center=  1.1D-14,  2.8D-13,  1.2D-02, r^2= 1.1D+01
   Bfn.  Coefficient  Atom+Function         Bfn.  Coefficient  Atom+Function  
  ----- ------------  ---------------      ----- ------------  ---------------
    35     -3.175204   2 C  py               58     -3.175204   3 C  py        
    12      2.962923   1 O  py              118      1.935072   6 H  s         
   127     -1.935072   7 H  s               136     -1.935072   8 H  s         
   145      1.935072   9 H  s               117      1.736433   6 H  s         
   126     -1.736433   7 H  s               135     -1.736433   8 H  s         

 Vector   62  Occ=0.000000D+00  E= 4.144888D-01  Symmetry=b2
              MO Center= -1.1D-14,  2.6D-13,  7.1D-01, r^2= 9.1D+00
   Bfn.  Coefficient  Atom+Function         Bfn.  Coefficient  Atom+Function  
  ----- ------------  ---------------      ----- ------------  ---------------
   162      1.350885  11 H  s               171     -1.350885  12 H  s         
   189      1.350885  14 H  s               198     -1.350885  15 H  s         
    12      1.146898   1 O  py               35     -1.083274   2 C  py        
    58     -1.083274   3 C  py              122      0.817860   6 H  px        
   131     -0.817860   7 H  px              140      0.817860   8 H  px        

 Vector   63  Occ=0.000000D+00  E= 4.388505D-01  Symmetry=a1
              MO Center= -4.5D-13,  7.3D-15, -5.0D-01, r^2= 1.5D+01
   Bfn.  Coefficient  Atom+Function         Bfn.  Coefficient  Atom+Function  
  ----- ------------  ---------------      ----- ------------  ---------------
   153      4.186461  10 H  s               180      4.186461  13 H  s         
    73     -3.803279   4 C  s                96     -3.803279   5 C  s         
    82     -3.268705   4 C  pz              105     -3.268705   5 C  pz        
    27      2.912470   2 C  s                50      2.912470   3 C  s         
   154      2.214756  10 H  s               181      2.214756  13 H  s         

 Vector   64  Occ=0.000000D+00  E= 4.416360D-01  Symmetry=b2
              MO Center=  2.8D-14,  4.8D-14, -1.6D-01, r^2= 1.7D+01
   Bfn.  Coefficient  Atom+Function         Bfn.  Coefficient  Atom+Function  
  ----- ------------  ---------------      ----- ------------  ---------------
   162      3.985485  11 H  s               171     -3.985485  12 H  s         
   189      3.985485  14 H  s               198     -3.985485  15 H  s         
    81      2.825919   4 C  py              104      2.825919   5 C  py        
    78      2.433090   4 C  py              101      2.433090   5 C  py        
   163      1.712029  11 H  s               172     -1.712029  12 H  s         

 Vector   65  Occ=0.000000D+00  E= 4.449208D-01  Symmetry=b1
              MO Center= -8.4D-14, -3.4D-12,  5.5D-01, r^2= 1.2D+01
   Bfn.  Coefficient  Atom+Function         Bfn.  Coefficient  Atom+Function  
  ----- ------------  ---------------      ----- ------------  ---------------
    27     21.025641   2 C  s                50    -21.025641   3 C  s         
    73    -12.159508   4 C  s                96     12.159508   5 C  s         
    34     -5.594487   2 C  px               57     -5.594487   3 C  px        
    36     -5.407972   2 C  pz               59      5.407972   3 C  pz        
    11      3.902213   1 O  px              117     -3.491644   6 H  s         

 Vector   66  Occ=0.000000D+00  E= 4.660778D-01  Symmetry=a1
              MO Center= -6.0D-12,  1.2D-13, -2.9D-01, r^2= 1.3D+01
   Bfn.  Coefficient  Atom+Function         Bfn.  Coefficient  Atom+Function  
  ----- ------------  ---------------      ----- ------------  ---------------
    73     11.650516   4 C  s                96     11.650516   5 C  s         
    27     -4.983516   2 C  s                50     -4.983516   3 C  s         
   162     -2.826009  11 H  s               171     -2.826009  12 H  s         
   189     -2.826009  14 H  s               198     -2.826009  15 H  s         
   153     -2.230924  10 H  s               180     -2.230924  13 H  s         

 Vector   67  Occ=0.000000D+00  E= 4.689705D-01  Symmetry=b1
              MO Center=  5.4D-13, -4.0D-14,  2.9D-01, r^2= 1.5D+01
   Bfn.  Coefficient  Atom+Function         Bfn.  Coefficient  Atom+Function  
  ----- ------------  ---------------      ----- ------------  ---------------
    27     26.866145   2 C  s                50    -26.866145   3 C  s         
    73    -16.792415   4 C  s                96     16.792415   5 C  s         
   117     -5.261840   6 H  s               126     -5.261840   7 H  s         
   135      5.261840   8 H  s               144      5.261840   9 H  s         
    33      4.338969   2 C  pz               56     -4.338969   3 C  pz        

 Vector   68  Occ=0.000000D+00  E= 4.733724D-01  Symmetry=a2
              MO Center=  1.4D-13, -3.3D-13, -2.2D-01, r^2= 1.7D+01
   Bfn.  Coefficient  Atom+Function         Bfn.  Coefficient  Atom+Function  
  ----- ------------  ---------------      ----- ------------  ---------------
    81     -4.879367   4 C  py              104      4.879367   5 C  py        
    35      4.698553   2 C  py               58     -4.698553   3 C  py        
   162     -4.695828  11 H  s               171      4.695828  12 H  s         
   189      4.695828  14 H  s               198     -4.695828  15 H  s         
   163     -3.116957  11 H  s               172      3.116957  12 H  s         

 Vector   69  Occ=0.000000D+00  E= 4.818662D-01  Symmetry=b1
              MO Center= -2.5D-13,  7.9D-14, -2.9D-01, r^2= 1.5D+01
   Bfn.  Coefficient  Atom+Function         Bfn.  Coefficient  Atom+Function  
  ----- ------------  ---------------      ----- ------------  ---------------
    11      4.580803   1 O  px              153      3.882405  10 H  s         
   180     -3.882405  13 H  s                73     -3.380892   4 C  s         
    96      3.380892   5 C  s                82     -3.253072   4 C  pz        
   105      3.253072   5 C  pz               36     -2.760463   2 C  pz        
    59      2.760463   3 C  pz              154      2.768645  10 H  s         

 Vector   70  Occ=0.000000D+00  E= 4.880077D-01  Symmetry=b2
              MO Center=  1.9D-12, -3.5D-12,  2.5D-01, r^2= 1.0D+01
   Bfn.  Coefficient  Atom+Function         Bfn.  Coefficient  Atom+Function  
  ----- ------------  ---------------      ----- ------------  ---------------
   117      3.652564   6 H  s               126     -3.652564   7 H  s         
   135     -3.652564   8 H  s               144      3.652564   9 H  s         
    32     -2.439180   2 C  py               55     -2.439180   3 C  py        
    35     -2.020943   2 C  py               58     -2.020943   3 C  py        
   118      1.504469   6 H  s               127     -1.504469   7 H  s         

 Vector   71  Occ=0.000000D+00  E= 4.936545D-01  Symmetry=b1
              MO Center= -1.1D-11, -5.4D-13,  1.0D-01, r^2= 1.3D+01
   Bfn.  Coefficient  Atom+Function         Bfn.  Coefficient  Atom+Function  
  ----- ------------  ---------------      ----- ------------  ---------------
    73     26.730638   4 C  s                96    -26.730638   5 C  s         
    34     16.664835   2 C  px               57     16.664835   3 C  px        
    11      6.819901   1 O  px               36      6.750318   2 C  pz        
    59     -6.750318   3 C  pz              153     -4.504979  10 H  s         
   180      4.504979  13 H  s                82      3.891389   4 C  pz        

 Vector   72  Occ=0.000000D+00  E= 5.000812D-01  Symmetry=a2
              MO Center= -9.3D-14,  2.3D-12,  6.5D-02, r^2= 1.2D+01
   Bfn.  Coefficient  Atom+Function         Bfn.  Coefficient  Atom+Function  
  ----- ------------  ---------------      ----- ------------  ---------------
   117     -4.201810   6 H  s               126      4.201810   7 H  s         
   135     -4.201810   8 H  s               144      4.201810   9 H  s         
    35      4.076804   2 C  py               58     -4.076804   3 C  py        
   118     -3.817780   6 H  s               127      3.817780   7 H  s         
   136     -3.817780   8 H  s               145      3.817780   9 H  s         


 center of mass
 --------------
 x =  -0.00000000 y =   0.00000000 z =  -0.01784680

 moments of inertia (a.u.)
 ------------------
         100.339244215766           0.000000000000           0.000000000000
           0.000000000000         850.892250784291           0.000000000000
           0.000000000000           0.000000000000         795.509023781260

  Mulliken analysis of the total density
  --------------------------------------

    Atom       Charge   Shell Charges
 -----------   ------   -------------------------------------------------------
    1 O    8     8.90   2.00  0.81  1.06  0.09  2.84  2.04 -0.00  0.02  0.05
    2 C    6     5.39   2.01  0.66  0.10 -0.08  1.97  0.51  0.03  0.13  0.05
    3 C    6     5.39   2.01  0.66  0.10 -0.08  1.97  0.51  0.03  0.13  0.05
    4 C    6     5.73   2.01  0.65  0.12  0.11  2.05  0.74  0.00  0.06 -0.01
    5 C    6     5.73   2.01  0.65  0.12  0.11  2.05  0.74  0.00  0.06 -0.01
    6 H    1     1.15   0.79  0.38 -0.01  0.03 -0.04
    7 H    1     1.15   0.79  0.38 -0.01  0.03 -0.04
    8 H    1     1.15   0.79  0.38 -0.01  0.03 -0.04
    9 H    1     1.15   0.79  0.38 -0.01  0.03 -0.04
   10 H    1     1.05   0.77  0.31 -0.00  0.03 -0.06
   11 H    1     1.05   0.77  0.29  0.01  0.03 -0.05
   12 H    1     1.05   0.77  0.29  0.01  0.03 -0.05
   13 H    1     1.05   0.77  0.31 -0.00  0.03 -0.06
   14 H    1     1.05   0.77  0.29  0.01  0.03 -0.05
   15 H    1     1.05   0.77  0.29  0.01  0.03 -0.05

       Multipole analysis of the density wrt the origin
       ------------------------------------------------

     L   x y z        total         open         nuclear
     -   - - -        -----         ----         -------
     0   0 0 0     -0.000000      0.000000     42.000000

     1   1 0 0     -0.000000      0.000000      0.000000
     1   0 1 0      0.000000      0.000000      0.000000
     1   0 0 1      0.469782      0.000000     -0.000000

     2   2 0 0    -23.227539      0.000000    473.987319
     2   1 1 0      0.000000      0.000000      0.000000
     2   1 0 1      0.000000      0.000000      0.000000
     2   0 2 0    -24.607852      0.000000     22.303484
     2   0 1 1      0.000000      0.000000      0.000000
     2   0 0 2    -25.213448      0.000000     56.750297


 Parallel integral file used    1215 records with       0 large values


 Task  times  cpu:        4.1s     wall:        4.1s


                                NWChem Input Module
                                -------------------


 Summary of allocated global arrays
-----------------------------------
  No active global arrays


MA_summarize_allocated_blocks: starting scan ...
MA_summarize_allocated_blocks: scan completed: 0 heap blocks, 0 stack blocks
MA usage statistics:

	allocation statistics:
					      heap	     stack
					      ----	     -----
	current number of blocks	         0	         0
	maximum number of blocks	        18	        14
	current total bytes		         0	         0
	maximum total bytes		 294600376	  22514344
	maximum total K-bytes		    294601	     22515
	maximum total M-bytes		       295	        23


                                     CITATION
                                     --------
                Please cite the following reference when publishing
                           results obtained with NWChem:

          E. Apra, E. J. Bylaska, W. A. de Jong, N. Govind, K. Kowalski,
       T. P. Straatsma, M. Valiev, H. J. J. van Dam, Y. Alexeev, J. Anchell,
       V. Anisimov, F. W. Aquino, R. Atta-Fynn, J. Autschbach, N. P. Bauman,
     J. C. Becca, D. E. Bernholdt, K. Bhaskaran-Nair, S. Bogatko, P. Borowski,
         J. Boschen, J. Brabec, A. Bruner, E. Cauet, Y. Chen, G. N. Chuev,
      C. J. Cramer, J. Daily, M. J. O. Deegan, T. H. Dunning Jr., M. Dupuis,
   K. G. Dyall, G. I. Fann, S. A. Fischer, A. Fonari, H. Fruchtl, L. Gagliardi,
      J. Garza, N. Gawande, S. Ghosh, K. Glaesemann, A. W. Gotz, J. Hammond,
       V. Helms, E. D. Hermes, K. Hirao, S. Hirata, M. Jacquelin, L. Jensen,
   B. G. Johnson, H. Jonsson, R. A. Kendall, M. Klemm, R. Kobayashi, V. Konkov,
      S. Krishnamoorthy, M. Krishnan, Z. Lin, R. D. Lins, R. J. Littlefield,
      A. J. Logsdail, K. Lopata, W. Ma, A. V. Marenich, J. Martin del Campo,
   D. Mejia-Rodriguez, J. E. Moore, J. M. Mullin, T. Nakajima, D. R. Nascimento,
    J. A. Nichols, P. J. Nichols, J. Nieplocha, A. Otero-de-la-Roza, B. Palmer,
    A. Panyala, T. Pirojsirikul, B. Peng, R. Peverati, J. Pittner, L. Pollack,
   R. M. Richard, P. Sadayappan, G. C. Schatz, W. A. Shelton, D. W. Silverstein,
   D. M. A. Smith, T. A. Soares, D. Song, M. Swart, H. L. Taylor, G. S. Thomas,
            V. Tipparaju, D. G. Truhlar, K. Tsemekhman, T. Van Voorhis,
      A. Vazquez-Mayagoitia, P. Verma, O. Villa, A. Vishnu, K. D. Vogiatzis,
        D. Wang, J. H. Weare, M. J. Williamson, T. L. Windus, K. Wolinski,
        A. T. Wong, Q. Wu, C. Yang, Q. Yu, M. Zacharias, Z. Zhang, Y. Zhao,
                                and R. J. Harrison
                        "NWChem: Past, present, and future
                         J. Chem. Phys. 152, 184102 (2020)
                               doi:10.1063/5.0004997

                                      AUTHORS
                                      -------
  E. Apra, E. J. Bylaska, N. Govind, K. Kowalski, M. Valiev, D. Mejia-Rodriguez,
       A. Kunitsa, N. P. Bauman, A. Panyala, W. A. de Jong, T. P. Straatsma,
   H. J. J. van Dam, D. Wang, T. L. Windus, J. Hammond, J. Autschbach, A. Woods,
    K. Bhaskaran-Nair, J. Brabec, K. Lopata, S. A. Fischer, S. Krishnamoorthy,
     M. Jacquelin, W. Ma, M. Klemm, O. Villa, Y. Chen, V. Anisimov, F. Aquino,
     S. Hirata, M. T. Hackler, E. Hermes, L. Jensen, J. E. Moore, J. C. Becca,
      V. Konjkov, T. Risthaus, M. Malagoli, A. Marenich, A. Otero-de-la-Roza,
        J. Mullin, P. Nichols, R. Peverati, J. Pittner, Y. Zhao, P.-D. Fan,
        A. Fonari, M. J. Williamson, R. J. Harrison, J. R. Rehr, M. Dupuis,
     D. Silverstein, D. M. A. Smith, J. Nieplocha, V. Tipparaju, M. Krishnan,
     B. E. Van Kuiken, A. Vazquez-Mayagoitia, M. Swart, Q. Wu, T. Van Voorhis,
     A. A. Auer, M. Nooijen, L. D. Crosby, E. Brown, G. Cisneros, G. I. Fann,
   H. Fruchtl, J. Garza, K. Hirao, R. A. Kendall, J. A. Nichols, K. Tsemekhman,
    K. Wolinski, J. Anchell, D. E. Bernholdt, P. Borowski, T. Clark, D. Clerc,
   H. Dachsel, M. J. O. Deegan, K. Dyall, D. Elwood, E. Glendening, M. Gutowski,
   A. C. Hess, J. Jaffe, B. G. Johnson, J. Ju, R. Kobayashi, R. Kutteh, Z. Lin,
   R. Littlefield, X. Long, B. Meng, T. Nakajima, S. Niu, L. Pollack, M. Rosing,
   K. Glaesemann, G. Sandrone, M. Stave, H. Taylor, G. Thomas, J. H. van Lenthe,
                               A. T. Wong, Z. Zhang.

 Total times  cpu:        4.2s     wall:        4.2s
