 argument  1 = diethyletherOptimized.txt



============================== echo of input deck ==============================
echo

start molecule

title "diethylether"
memory total 2 gb

charge 0
geometry units angstrom print xyz
 O     0.00000000     0.00000000    -0.22784882
 C    -1.17572811     0.00000000     0.52502392
 C     1.17572811     0.00000000     0.52502392
 C    -2.35878452     0.00000000    -0.41940646
 C     2.35878452     0.00000000    -0.41940646
 H    -1.20754240     0.88298938     1.17637288
 H    -1.20754240    -0.88298938     1.17637288
 H     1.20754240    -0.88298938     1.17637288
 H     1.20754240     0.88298938     1.17637288
 H    -3.29612084     0.00000000     0.14134896
 H    -2.33527916    -0.88415659    -1.05869291
 H    -2.33527916     0.88415659    -1.05869291
 H     3.29612084     0.00000000     0.14134896
 H     2.33527916    -0.88415659    -1.05869291
 H     2.33527916     0.88415659    -1.05869291

end

basis spherical
 * library aug-cc-pVTZ
end

task scf
================================================================================


                                         
                                         


             Northwest Computational Chemistry Package (NWChem) 7.2.2
             --------------------------------------------------------


                    Environmental Molecular Sciences Laboratory
                       Pacific Northwest National Laboratory
                                Richland, WA 99352

                              Copyright (c) 1994-2022
                       Pacific Northwest National Laboratory
                            Battelle Memorial Institute

             NWChem is an open-source computational chemistry package
                        distributed under the terms of the
                      Educational Community License (ECL) 2.0
             A copy of the license is included with this distribution
                              in the LICENSE.TXT file

                                  ACKNOWLEDGMENT
                                  --------------

            This software and its documentation were developed at the
            EMSL at Pacific Northwest National Laboratory, a multiprogram
            national laboratory, operated for the U.S. Department of Energy
            by Battelle under Contract Number DE-AC05-76RL01830. Support
            for this work was provided by the Department of Energy Office
            of Biological and Environmental Research, Office of Basic
            Energy Sciences, and the Office of Advanced Scientific Computing.


           Job information
           ---------------

    hostname        = Eliass-MacBook-Air.local
    program         = nwchem
    date            = Sat Mar 23 14:53:39 2024

    compiled        = Sun_Dec_10_10:51:21_2023
    source          = /private/tmp/nwchem-20231210-5888-3uvdjr/nwchem-7.2.2
    nwchem branch   = 7.2.2
    nwchem revision = 74936fb9
    ga revision     = 5.8.0
    use scalapack   = T
    input           = diethyletherOptimized.txt
    prefix          = molecule.
    data base       = ./molecule.db
    status          = startup
    nproc           =        4
    time left       =     -1s



           Memory information
           ------------------

    heap     =   67108860 doubles =    512.0 Mbytes
    stack    =   67108865 doubles =    512.0 Mbytes
    global   =  134217728 doubles =   1024.0 Mbytes (distinct from heap & stack)
    total    =  268435453 doubles =   2048.0 Mbytes
    verify   = yes
    hardfail = no 


           Directory information
           ---------------------

  0 permanent = .
  0 scratch   = .




                                NWChem Input Module
                                -------------------


                                   diethylether
                                   ------------

 Scaling coordinates for geometry "geometry" by  1.889725989
 (inverse scale =  0.529177249)

 C2V symmetry detected

          ------
          auto-z
          ------
  no constraints, skipping    0.0000000000000000     
  no constraints, skipping    0.0000000000000000     


                             Geometry "geometry" -> ""
                             -------------------------

 Output coordinates in angstroms (scale by  1.889725989 to convert to a.u.)

  No.       Tag          Charge          X              Y              Z
 ---- ---------------- ---------- -------------- -------------- --------------
    1 O                    8.0000     0.00000000     0.00000000    -0.23256398
    2 C                    6.0000    -1.17572811     0.00000000     0.52030876
    3 C                    6.0000     1.17572811     0.00000000     0.52030876
    4 C                    6.0000    -2.35878452     0.00000000    -0.42412162
    5 C                    6.0000     2.35878452     0.00000000    -0.42412162
    6 H                    1.0000    -1.20754240     0.88298938     1.17165772
    7 H                    1.0000    -1.20754240    -0.88298938     1.17165772
    8 H                    1.0000     1.20754240    -0.88298938     1.17165772
    9 H                    1.0000     1.20754240     0.88298938     1.17165772
   10 H                    1.0000    -3.29612084     0.00000000     0.13663380
   11 H                    1.0000    -2.33527916    -0.88415659    -1.06340807
   12 H                    1.0000    -2.33527916     0.88415659    -1.06340807
   13 H                    1.0000     3.29612084     0.00000000     0.13663380
   14 H                    1.0000     2.33527916    -0.88415659    -1.06340807
   15 H                    1.0000     2.33527916     0.88415659    -1.06340807

      Atomic Mass 
      ----------- 

      O                 15.994910
      C                 12.000000
      H                  1.007825


 Effective nuclear repulsion energy (a.u.)     190.8378039837

            Nuclear Dipole moment (a.u.) 
            ----------------------------
        X                 Y               Z
 ---------------- ---------------- ----------------
     0.0000000000     0.0000000000    -0.0000000000

      Symmetry information
      --------------------

 Group name             C2v       
 Group number             16
 Group order               4
 No. of unique centers     6

      Symmetry unique atoms

     1    2    4    6   10   11



                                Z-matrix (autoz)
                                -------- 

 Units are Angstrom for bonds and degrees for angles

      Type          Name      I     J     K     L     M      Value
      ----------- --------  ----- ----- ----- ----- ----- ----------
    1 Stretch                  1     2                       1.39612
    2 Stretch                  1     3                       1.39612
    3 Stretch                  2     4                       1.51379
    4 Stretch                  2     6                       1.09770
    5 Stretch                  2     7                       1.09770
    6 Stretch                  3     5                       1.51379
    7 Stretch                  3     8                       1.09770
    8 Stretch                  3     9                       1.09770
    9 Stretch                  4    10                       1.09227
   10 Stretch                  4    11                       1.09132
   11 Stretch                  4    12                       1.09132
   12 Stretch                  5    13                       1.09227
   13 Stretch                  5    14                       1.09132
   14 Stretch                  5    15                       1.09132
   15 Bend                     1     2     4               108.76644
   16 Bend                     1     2     6               110.14473
   17 Bend                     1     2     7               110.14473
   18 Bend                     1     3     5               108.76644
   19 Bend                     1     3     8               110.14473
   20 Bend                     1     3     9               110.14473
   21 Bend                     2     1     3               114.73339
   22 Bend                     2     4    10               110.51004
   23 Bend                     2     4    11               110.40379
   24 Bend                     2     4    12               110.40379
   25 Bend                     3     5    13               110.51004
   26 Bend                     3     5    14               110.40379
   27 Bend                     3     5    15               110.40379
   28 Bend                     4     2     6               110.33741
   29 Bend                     4     2     7               110.33741
   30 Bend                     5     3     8               110.33741
   31 Bend                     5     3     9               110.33741
   32 Bend                     6     2     7               107.10509
   33 Bend                     8     3     9               107.10509
   34 Bend                    10     4    11               108.61590
   35 Bend                    10     4    12               108.61590
   36 Bend                    11     4    12               108.22587
   37 Bend                    13     5    14               108.61590
   38 Bend                    13     5    15               108.61590
   39 Bend                    14     5    15               108.22587
   40 Torsion                  1     2     4    10         180.00000
   41 Torsion                  1     2     4    11          59.81516
   42 Torsion                  1     2     4    12         -59.81516
   43 Torsion                  1     3     5    13         180.00000
   44 Torsion                  1     3     5    14         -59.81516
   45 Torsion                  1     3     5    15          59.81516
   46 Torsion                  2     1     3     5         180.00000
   47 Torsion                  2     1     3     8          58.96108
   48 Torsion                  2     1     3     9         -58.96108
   49 Torsion                  3     1     2     4         180.00000
   50 Torsion                  3     1     2     6          58.96108
   51 Torsion                  3     1     2     7         -58.96108
   52 Torsion                  6     2     4    10         -59.07942
   53 Torsion                  6     2     4    11        -179.26426
   54 Torsion                  6     2     4    12          61.10542
   55 Torsion                  7     2     4    10          59.07942
   56 Torsion                  7     2     4    11         -61.10542
   57 Torsion                  7     2     4    12         179.26426
   58 Torsion                  8     3     5    13         -59.07942
   59 Torsion                  8     3     5    14          61.10542
   60 Torsion                  8     3     5    15        -179.26426
   61 Torsion                  9     3     5    13          59.07942
   62 Torsion                  9     3     5    14         179.26426
   63 Torsion                  9     3     5    15         -61.10542


            XYZ format geometry
            -------------------
    15
 geometry
 O                     0.00000000     0.00000000    -0.23256398
 C                    -1.17572811     0.00000000     0.52030876
 C                     1.17572811     0.00000000     0.52030876
 C                    -2.35878452     0.00000000    -0.42412162
 C                     2.35878452     0.00000000    -0.42412162
 H                    -1.20754240     0.88298938     1.17165772
 H                    -1.20754240    -0.88298938     1.17165772
 H                     1.20754240    -0.88298938     1.17165772
 H                     1.20754240     0.88298938     1.17165772
 H                    -3.29612084     0.00000000     0.13663380
 H                    -2.33527916    -0.88415659    -1.06340807
 H                    -2.33527916     0.88415659    -1.06340807
 H                     3.29612084     0.00000000     0.13663380
 H                     2.33527916    -0.88415659    -1.06340807
 H                     2.33527916     0.88415659    -1.06340807

 ==============================================================================
                                internuclear distances
 ------------------------------------------------------------------------------
       center one      |      center two      | atomic units |  angstroms
 ------------------------------------------------------------------------------
    2 C                |   1 O                |     2.63829  |     1.39612
    3 C                |   1 O                |     2.63829  |     1.39612
    4 C                |   2 C                |     2.86066  |     1.51379
    5 C                |   3 C                |     2.86066  |     1.51379
    6 H                |   2 C                |     2.07435  |     1.09770
    7 H                |   2 C                |     2.07435  |     1.09770
    8 H                |   3 C                |     2.07435  |     1.09770
    9 H                |   3 C                |     2.07435  |     1.09770
   10 H                |   4 C                |     2.06408  |     1.09227
   11 H                |   4 C                |     2.06229  |     1.09132
   12 H                |   4 C                |     2.06229  |     1.09132
   13 H                |   5 C                |     2.06408  |     1.09227
   14 H                |   5 C                |     2.06229  |     1.09132
   15 H                |   5 C                |     2.06229  |     1.09132
 ------------------------------------------------------------------------------
                         number of included internuclear distances:         14
 ==============================================================================



 ==============================================================================
                                 internuclear angles
 ------------------------------------------------------------------------------
        center 1       |       center 2       |       center 3       |  degrees
 ------------------------------------------------------------------------------
    2 C                |   1 O                |   3 C                |   114.73
    1 O                |   2 C                |   4 C                |   108.77
    1 O                |   2 C                |   6 H                |   110.14
    1 O                |   2 C                |   7 H                |   110.14
    4 C                |   2 C                |   6 H                |   110.34
    4 C                |   2 C                |   7 H                |   110.34
    6 H                |   2 C                |   7 H                |   107.11
    1 O                |   3 C                |   5 C                |   108.77
    1 O                |   3 C                |   8 H                |   110.14
    1 O                |   3 C                |   9 H                |   110.14
    5 C                |   3 C                |   8 H                |   110.34
    5 C                |   3 C                |   9 H                |   110.34
    8 H                |   3 C                |   9 H                |   107.11
    2 C                |   4 C                |  10 H                |   110.51
    2 C                |   4 C                |  11 H                |   110.40
    2 C                |   4 C                |  12 H                |   110.40
   10 H                |   4 C                |  11 H                |   108.62
   10 H                |   4 C                |  12 H                |   108.62
   11 H                |   4 C                |  12 H                |   108.23
    3 C                |   5 C                |  13 H                |   110.51
    3 C                |   5 C                |  14 H                |   110.40
    3 C                |   5 C                |  15 H                |   110.40
   13 H                |   5 C                |  14 H                |   108.62
   13 H                |   5 C                |  15 H                |   108.62
   14 H                |   5 C                |  15 H                |   108.23
 ------------------------------------------------------------------------------
                            number of included internuclear angles:         25
 ==============================================================================



  library name resolved from: .nwchemrc
  library file name is: </opt/homebrew/Cellar/nwchem/7.2.2/share/nwchem/libraries/>
  


 Summary of "ao basis" -> "" (spherical)
 ------------------------------------------------------------------------------
       Tag                 Description            Shells   Functions and Types
 ---------------- ------------------------------  ------  ---------------------
 *                        aug-cc-pVTZ                 on all atoms 


                      Basis "ao basis" -> "ao basis" (spherical)
                      -----
  O (Oxygen)
  ----------
            Exponent  Coefficients 
       -------------- ---------------------------------------------------------
  1 S  1.53300000E+04  0.000508
  1 S  2.29900000E+03  0.003929
  1 S  5.22400000E+02  0.020243
  1 S  1.47300000E+02  0.079181
  1 S  4.75500000E+01  0.230687
  1 S  1.67600000E+01  0.433118
  1 S  6.20700000E+00  0.350260
  1 S  6.88200000E-01 -0.008154

  2 S  1.53300000E+04 -0.000115
  2 S  2.29900000E+03 -0.000895
  2 S  5.22400000E+02 -0.004636
  2 S  1.47300000E+02 -0.018724
  2 S  4.75500000E+01 -0.058463
  2 S  1.67600000E+01 -0.136463
  2 S  6.20700000E+00 -0.175740
  2 S  6.88200000E-01  0.603418

  3 S  1.75200000E+00  1.000000

  4 S  2.38400000E-01  1.000000

  5 S  7.37600000E-02  1.000000

  6 P  3.44600000E+01  0.015928
  6 P  7.74900000E+00  0.099740
  6 P  2.28000000E+00  0.310492

  7 P  7.15600000E-01  1.000000

  8 P  2.14000000E-01  1.000000

  9 P  5.97400000E-02  1.000000

 10 D  2.31400000E+00  1.000000

 11 D  6.45000000E-01  1.000000

 12 D  2.14000000E-01  1.000000

 13 F  1.42800000E+00  1.000000

 14 F  5.00000000E-01  1.000000

  C (Carbon)
  ----------
            Exponent  Coefficients 
       -------------- ---------------------------------------------------------
  1 S  8.23600000E+03  0.000531
  1 S  1.23500000E+03  0.004108
  1 S  2.80800000E+02  0.021087
  1 S  7.92700000E+01  0.081853
  1 S  2.55900000E+01  0.234817
  1 S  8.99700000E+00  0.434401
  1 S  3.31900000E+00  0.346129
  1 S  3.64300000E-01 -0.008983

  2 S  8.23600000E+03 -0.000113
  2 S  1.23500000E+03 -0.000878
  2 S  2.80800000E+02 -0.004540
  2 S  7.92700000E+01 -0.018133
  2 S  2.55900000E+01 -0.055760
  2 S  8.99700000E+00 -0.126895
  2 S  3.31900000E+00 -0.170352
  2 S  3.64300000E-01  0.598684

  3 S  9.05900000E-01  1.000000

  4 S  1.28500000E-01  1.000000

  5 S  4.40200000E-02  1.000000

  6 P  1.87100000E+01  0.014031
  6 P  4.13300000E+00  0.086866
  6 P  1.20000000E+00  0.290216

  7 P  3.82700000E-01  1.000000

  8 P  1.20900000E-01  1.000000

  9 P  3.56900000E-02  1.000000

 10 D  1.09700000E+00  1.000000

 11 D  3.18000000E-01  1.000000

 12 D  1.00000000E-01  1.000000

 13 F  7.61000000E-01  1.000000

 14 F  2.68000000E-01  1.000000

  H (Hydrogen)
  ------------
            Exponent  Coefficients 
       -------------- ---------------------------------------------------------
  1 S  3.38700000E+01  0.006068
  1 S  5.09500000E+00  0.045308
  1 S  1.15900000E+00  0.202822

  2 S  3.25800000E-01  1.000000

  3 S  1.02700000E-01  1.000000

  4 S  2.52600000E-02  1.000000

  5 P  1.40700000E+00  1.000000

  6 P  3.88000000E-01  1.000000

  7 P  1.02000000E-01  1.000000

  8 D  1.05700000E+00  1.000000

  9 D  2.47000000E-01  1.000000



 Summary of "ao basis" -> "ao basis" (spherical)
 ------------------------------------------------------------------------------
       Tag                 Description            Shells   Functions and Types
 ---------------- ------------------------------  ------  ---------------------
 O                        aug-cc-pVTZ               14       46   5s4p3d2f
 C                        aug-cc-pVTZ               14       46   5s4p3d2f
 H                        aug-cc-pVTZ                9       23   4s3p2d


                                 NWChem SCF Module
                                 -----------------


                                   diethylether



  ao basis        = "ao basis"
  functions       =   460
  atoms           =    15
  closed shells   =    21
  open shells     =     0
  charge          =   0.00
  wavefunction    = RHF 
  input vectors   = atomic
  output vectors  = ./molecule.movecs
  use symmetry    = T
  symmetry adapt  = T


 Summary of "ao basis" -> "ao basis" (spherical)
 ------------------------------------------------------------------------------
       Tag                 Description            Shells   Functions and Types
 ---------------- ------------------------------  ------  ---------------------
 O                        aug-cc-pVTZ               14       46   5s4p3d2f
 C                        aug-cc-pVTZ               14       46   5s4p3d2f
 H                        aug-cc-pVTZ                9       23   4s3p2d


      Symmetry analysis of basis
      --------------------------

        a1        141
        a2         90
        b1        133
        b2         96


 Forming initial guess at       0.1s


 !! The overlap matrix has   1 vectors deemed linearly dependent with
    eigenvalues:
 8.71D-06


      Superposition of Atomic Density Guess
      -------------------------------------

 Sum of atomic energies:        -230.46212170

      Non-variational initial energy
      ------------------------------

 Total energy =    -233.820939
 1-e energy   =    -687.792421
 2-e energy   =     263.133678
 HOMO         =      -0.337701
 LUMO         =       0.019428


      Symmetry analysis of molecular orbitals - initial
      -------------------------------------------------

  Numbering of irreducible representations: 

     1 a1          2 a2          3 b1          4 b2      

  Orbital symmetries:

     1 a1          2 b1          3 a1          4 a1          5 b1      
     6 a1          7 b1          8 a1          9 b1         10 a1      
    11 b2         12 b1         13 a1         14 a2         15 a1      
    16 b2         17 b1         18 b1         19 a1         20 a2      
    21 b2         22 a1         23 b1         24 a1         25 b2      
    26 a1         27 b1         28 a2         29 b2         30 b1      
    31 a2      


 Starting SCF solution at      20.0s



 ----------------------------------------------
         Quadratically convergent ROHF

 Convergence threshold     :          1.000E-04
 Maximum no. of iterations :           30
 Final Fock-matrix accuracy:          1.000E-10
 ----------------------------------------------


 Integral file          = ./molecule.aoints.0
 Record size in doubles =  65536        No. of integs per rec  =  32766
 Max. records in memory =      0        Max. records in file   = 155054
 No. of bits per label  =     16        No. of bits per value  =     64


 #quartets = 2.153D+07 #integrals = 1.252D+09 #direct =  0.0% #cached =100.0%


File balance: exchanges=     3  moved=  5802  time=   3.0


              iter       energy          gnorm     gmax       time
             ----- ------------------- --------- --------- --------
                 1     -232.1649947797  9.95D-01  1.15D-01     48.2
 Warning: symmetry breaking in RHF:    1.6678779121703791E-009
                 2     -232.2252584559  4.40D-01  6.88D-02     54.6
 Warning: symmetry breaking in RHF:    1.6629055459016495E-009
                 3     -232.2357710453  2.54D-02  3.63D-03     73.4
 Warning: symmetry breaking in RHF:    1.7131926363656014E-009
                 4     -232.2358296096  5.27D-04  6.15D-05     99.0
 Warning: symmetry breaking in RHF:    1.7146125994710326E-009
                 5     -232.2358296385  4.32D-06  5.61D-07    131.7


       Final RHF  results 
       ------------------ 

         Total SCF energy =   -232.235829638479
      One-electron energy =   -692.944132978872
      Two-electron energy =    269.870499356694
 Nuclear repulsion energy =    190.837803983699

        Time for solution =    111.8s



       Symmetry analysis of molecular orbitals - final
       -----------------------------------------------

  Numbering of irreducible representations: 

     1 a1          2 a2          3 b1          4 b2      

  Orbital symmetries:

     1 a1          2 b1          3 a1          4 b1          5 a1      
     6 a1          7 b1          8 a1          9 b1         10 a1      
    11 b2         12 b1         13 a2         14 a1         15 a1      
    16 b2         17 b1         18 b1         19 a2         20 a1      
    21 b2         22 a1         23 b1         24 a1         25 b2      
    26 a1         27 b1         28 a2         29 b2         30 b1      
    31 a2      

             Final eigenvalues
             -----------------

              1      
    1  -20.5497
    2  -11.2698
    3  -11.2697
    4  -11.2110
    5  -11.2110
    6   -1.3820
    7   -1.0439
    8   -0.9815
    9   -0.8440
   10   -0.8249
   11   -0.6788
   12   -0.6687
   13   -0.6039
   14   -0.6008
   15   -0.5480
   16   -0.5294
   17   -0.5214
   18   -0.4937
   19   -0.4855
   20   -0.4684
   21   -0.4156
   22    0.0315
   23    0.0365
   24    0.0402
   25    0.0405
   26    0.0545
   27    0.0553
   28    0.0571
   29    0.0641
   30    0.0773
   31    0.0828

                       ROHF Final Molecular Orbital Analysis
                       -------------------------------------

 Vector    6  Occ=2.000000D+00  E=-1.381970D+00  Symmetry=a1
              MO Center=  1.0D-12,  6.6D-14, -2.3D-02, r^2= 6.9D-01
   Bfn.  Coefficient  Atom+Function         Bfn.  Coefficient  Atom+Function  
  ----- ------------  ---------------      ----- ------------  ---------------
     2      0.469140   1 O  s                 4      0.292433   1 O  s         
    48      0.151754   2 C  s                94      0.151754   3 C  s         

 Vector    7  Occ=2.000000D+00  E=-1.043885D+00  Symmetry=b1
              MO Center= -1.7D-13, -1.9D-14,  4.7D-02, r^2= 4.1D+00
   Bfn.  Coefficient  Atom+Function         Bfn.  Coefficient  Atom+Function  
  ----- ------------  ---------------      ----- ------------  ---------------
    48      0.254664   2 C  s                94     -0.254664   3 C  s         
   140      0.226412   4 C  s               186     -0.226412   5 C  s         

 Vector    8  Occ=2.000000D+00  E=-9.814721D-01  Symmetry=a1
              MO Center= -5.4D-13, -3.5D-14, -1.4D-01, r^2= 5.6D+00
   Bfn.  Coefficient  Atom+Function         Bfn.  Coefficient  Atom+Function  
  ----- ------------  ---------------      ----- ------------  ---------------
   140      0.284586   4 C  s               186      0.284586   5 C  s         
    48      0.151203   2 C  s                94      0.151203   3 C  s         

 Vector    9  Occ=2.000000D+00  E=-8.440203D-01  Symmetry=b1
              MO Center= -3.5D-12,  3.4D-13, -1.2D-01, r^2= 5.6D+00
   Bfn.  Coefficient  Atom+Function         Bfn.  Coefficient  Atom+Function  
  ----- ------------  ---------------      ----- ------------  ---------------
   140      0.227652   4 C  s               186     -0.227652   5 C  s         
    48     -0.202116   2 C  s                94      0.202116   3 C  s         

 Vector   10  Occ=2.000000D+00  E=-8.249176D-01  Symmetry=a1
              MO Center= -9.1D-13, -9.5D-14,  3.6D-01, r^2= 3.8D+00
   Bfn.  Coefficient  Atom+Function         Bfn.  Coefficient  Atom+Function  
  ----- ------------  ---------------      ----- ------------  ---------------
    48      0.215169   2 C  s                94      0.215169   3 C  s         
     2     -0.165257   1 O  s                 4     -0.164565   1 O  s         

 Vector   11  Occ=2.000000D+00  E=-6.787701D-01  Symmetry=b2
              MO Center= -2.1D-16,  4.4D-15,  3.0D-01, r^2= 2.7D+00
   Bfn.  Coefficient  Atom+Function         Bfn.  Coefficient  Atom+Function  
  ----- ------------  ---------------      ----- ------------  ---------------
    10      0.229038   1 O  py                7      0.179565   1 O  py        
    56      0.177430   2 C  py              102      0.177430   3 C  py        
    13      0.172670   1 O  py        

 Vector   12  Occ=2.000000D+00  E=-6.687389D-01  Symmetry=b1
              MO Center=  2.5D-14, -6.5D-18,  3.2D-01, r^2= 3.1D+00
   Bfn.  Coefficient  Atom+Function         Bfn.  Coefficient  Atom+Function  
  ----- ------------  ---------------      ----- ------------  ---------------
     9      0.247955   1 O  px                6      0.189393   1 O  px        
    57      0.158861   2 C  pz              103     -0.158861   3 C  pz        

 Vector   13  Occ=2.000000D+00  E=-6.038681D-01  Symmetry=a2
              MO Center= -8.0D-14,  1.2D-13,  6.2D-02, r^2= 5.1D+00
   Bfn.  Coefficient  Atom+Function         Bfn.  Coefficient  Atom+Function  
  ----- ------------  ---------------      ----- ------------  ---------------
    56      0.172911   2 C  py              102     -0.172911   3 C  py        
   148      0.157319   4 C  py              194     -0.157319   5 C  py        

 Vector   14  Occ=2.000000D+00  E=-6.008148D-01  Symmetry=a1
              MO Center= -1.6D-14,  2.2D-19, -1.6D-01, r^2= 4.1D+00
   Bfn.  Coefficient  Atom+Function         Bfn.  Coefficient  Atom+Function  
  ----- ------------  ---------------      ----- ------------  ---------------
    11      0.243884   1 O  pz                8      0.191992   1 O  pz        
    14      0.161962   1 O  pz               55      0.152314   2 C  px        
   101     -0.152314   3 C  px              142      0.151080   4 C  s         
   188      0.151080   5 C  s         

 Vector   15  Occ=2.000000D+00  E=-5.480014D-01  Symmetry=a1
              MO Center=  1.8D-13,  1.3D-17, -3.3D-01, r^2= 8.0D+00
   Bfn.  Coefficient  Atom+Function         Bfn.  Coefficient  Atom+Function  
  ----- ------------  ---------------      ----- ------------  ---------------
   149      0.169026   4 C  pz              195      0.169026   5 C  pz        
   152      0.150009   4 C  pz              198      0.150009   5 C  pz        

 Vector   16  Occ=2.000000D+00  E=-5.293791D-01  Symmetry=b2
              MO Center= -2.9D-13, -1.2D-13, -6.2D-01, r^2= 6.0D+00
   Bfn.  Coefficient  Atom+Function         Bfn.  Coefficient  Atom+Function  
  ----- ------------  ---------------      ----- ------------  ---------------
   148      0.207966   4 C  py              194      0.207966   5 C  py        
   151      0.169325   4 C  py              197      0.169325   5 C  py        
    10     -0.166964   1 O  py              145      0.154021   4 C  py        
   191      0.154021   5 C  py        

 Vector   17  Occ=2.000000D+00  E=-5.214047D-01  Symmetry=b1
              MO Center= -7.8D-12,  5.3D-13, -2.2D-01, r^2= 7.3D+00
   Bfn.  Coefficient  Atom+Function         Bfn.  Coefficient  Atom+Function  
  ----- ------------  ---------------      ----- ------------  ---------------
   149      0.177640   4 C  pz              195     -0.177640   5 C  pz        
   152      0.172600   4 C  pz              198     -0.172600   5 C  pz        

 Vector   18  Occ=2.000000D+00  E=-4.936893D-01  Symmetry=b1
              MO Center= -3.9D-14, -1.5D-15,  3.7D-02, r^2= 4.9D+00
   Bfn.  Coefficient  Atom+Function         Bfn.  Coefficient  Atom+Function  
  ----- ------------  ---------------      ----- ------------  ---------------
    50      0.183470   2 C  s                96     -0.183470   3 C  s         
    55      0.173221   2 C  px              101      0.173221   3 C  px        
   147     -0.173889   4 C  px              193     -0.173889   5 C  px        

 Vector   19  Occ=2.000000D+00  E=-4.854917D-01  Symmetry=a2
              MO Center= -7.1D-13,  6.0D-14,  3.7D-02, r^2= 5.5D+00
   Bfn.  Coefficient  Atom+Function         Bfn.  Coefficient  Atom+Function  
  ----- ------------  ---------------      ----- ------------  ---------------
    59      0.172791   2 C  py              105     -0.172791   3 C  py        
    56      0.171583   2 C  py              102     -0.171583   3 C  py        
   151     -0.171920   4 C  py              197      0.171920   5 C  py        
   148     -0.160251   4 C  py              194      0.160251   5 C  py        

 Vector   20  Occ=2.000000D+00  E=-4.683689D-01  Symmetry=a1
              MO Center= -5.1D-13, -5.9D-14,  6.7D-02, r^2= 2.9D+00
   Bfn.  Coefficient  Atom+Function         Bfn.  Coefficient  Atom+Function  
  ----- ------------  ---------------      ----- ------------  ---------------
    11      0.289559   1 O  pz                8      0.228469   1 O  pz        
    14      0.226036   1 O  pz               57     -0.173962   2 C  pz        
   103     -0.173962   3 C  pz        

 Vector   21  Occ=2.000000D+00  E=-4.156028D-01  Symmetry=b2
              MO Center=  2.4D-13,  2.9D-13,  2.9D-01, r^2= 2.3D+00
   Bfn.  Coefficient  Atom+Function         Bfn.  Coefficient  Atom+Function  
  ----- ------------  ---------------      ----- ------------  ---------------
    10      0.355783   1 O  py               13      0.311215   1 O  py        
     7      0.279834   1 O  py               59     -0.230749   2 C  py        
   105     -0.230749   3 C  py        

 Vector   22  Occ=0.000000D+00  E= 3.147938D-02  Symmetry=a1
              MO Center= -1.1D-14, -3.9D-16,  1.5D+00, r^2= 2.7D+01
   Bfn.  Coefficient  Atom+Function         Bfn.  Coefficient  Atom+Function  
  ----- ------------  ---------------      ----- ------------  ---------------
     5      2.274974   1 O  s               143     -2.076562   4 C  s         
   189     -2.076562   5 C  s                51     -1.898188   2 C  s         
    97     -1.898188   3 C  s               142     -1.839004   4 C  s         
   188     -1.839004   5 C  s               326      1.324139  10 H  s         
   395      1.324139  13 H  s               325      1.282223  10 H  s         

 Vector   23  Occ=0.000000D+00  E= 3.650737D-02  Symmetry=b1
              MO Center=  7.1D-11, -1.9D-13,  5.1D-01, r^2= 3.9D+01
   Bfn.  Coefficient  Atom+Function         Bfn.  Coefficient  Atom+Function  
  ----- ------------  ---------------      ----- ------------  ---------------
    61      4.775750   2 C  px              107      4.775750   3 C  px        
   143      3.720532   4 C  s               189     -3.720532   5 C  s         
   326      3.196498  10 H  s               395     -3.196498  13 H  s         
   142     -2.178217   4 C  s               188      2.178217   5 C  s         
   153      1.676280   4 C  px              199      1.676280   5 C  px        

 Vector   24  Occ=0.000000D+00  E= 4.017644D-02  Symmetry=a1
              MO Center= -5.9D-13, -3.4D-15, -1.2D+00, r^2= 3.0D+01
   Bfn.  Coefficient  Atom+Function         Bfn.  Coefficient  Atom+Function  
  ----- ------------  ---------------      ----- ------------  ---------------
   349      2.170297  11 H  s               372      2.170297  12 H  s         
   418      2.170297  14 H  s               441      2.170297  15 H  s         
   155      1.589817   4 C  pz              201      1.589817   5 C  pz        
   234     -1.337673   6 H  s               257     -1.337673   7 H  s         
   280     -1.337673   8 H  s               303     -1.337673   9 H  s         

 Vector   25  Occ=0.000000D+00  E= 4.050514D-02  Symmetry=b2
              MO Center= -5.9D-15,  1.2D-14,  5.5D-01, r^2= 2.9D+01
   Bfn.  Coefficient  Atom+Function         Bfn.  Coefficient  Atom+Function  
  ----- ------------  ---------------      ----- ------------  ---------------
   234      2.443596   6 H  s               257     -2.443596   7 H  s         
   280     -2.443596   8 H  s               303      2.443596   9 H  s         
   349     -1.620900  11 H  s               372      1.620900  12 H  s         
   418     -1.620900  14 H  s               441      1.620900  15 H  s         
    62     -1.554442   2 C  py              108     -1.554442   3 C  py        

 Vector   26  Occ=0.000000D+00  E= 5.446308D-02  Symmetry=a1
              MO Center= -2.8D-11,  2.9D-14,  8.7D-01, r^2= 3.8D+01
   Bfn.  Coefficient  Atom+Function         Bfn.  Coefficient  Atom+Function  
  ----- ------------  ---------------      ----- ------------  ---------------
   326      5.032712  10 H  s               395      5.032712  13 H  s         
   153      1.916024   4 C  px              199     -1.916024   5 C  px        
   143      1.524960   4 C  s               189      1.524960   5 C  s         
   349     -1.330154  11 H  s               372     -1.330154  12 H  s         
   418     -1.330154  14 H  s               441     -1.330154  15 H  s         

 Vector   27  Occ=0.000000D+00  E= 5.527322D-02  Symmetry=b1
              MO Center= -2.8D-14, -3.1D-15, -6.8D-01, r^2= 3.7D+01
   Bfn.  Coefficient  Atom+Function         Bfn.  Coefficient  Atom+Function  
  ----- ------------  ---------------      ----- ------------  ---------------
   349     -3.225017  11 H  s               372     -3.225017  12 H  s         
   418      3.225017  14 H  s               441      3.225017  15 H  s         
   234      3.048562   6 H  s               257      3.048562   7 H  s         
   280     -3.048562   8 H  s               303     -3.048562   9 H  s         
    63     -2.663381   2 C  pz              109      2.663381   3 C  pz        

 Vector   28  Occ=0.000000D+00  E= 5.707343D-02  Symmetry=a2
              MO Center=  1.5D-13,  5.0D-13, -1.5D-02, r^2= 3.6D+01
   Bfn.  Coefficient  Atom+Function         Bfn.  Coefficient  Atom+Function  
  ----- ------------  ---------------      ----- ------------  ---------------
   234      4.738013   6 H  s               257     -4.738013   7 H  s         
   280      4.738013   8 H  s               303     -4.738013   9 H  s         
   349     -2.950538  11 H  s               372      2.950538  12 H  s         
   418      2.950538  14 H  s               441     -2.950538  15 H  s         
    62     -2.171998   2 C  py              108      2.171998   3 C  py        

 Vector   29  Occ=0.000000D+00  E= 6.412697D-02  Symmetry=b2
              MO Center= -7.9D-14, -2.2D-15, -3.0D-01, r^2= 3.1D+01
   Bfn.  Coefficient  Atom+Function         Bfn.  Coefficient  Atom+Function  
  ----- ------------  ---------------      ----- ------------  ---------------
   349      3.599029  11 H  s               372     -3.599029  12 H  s         
   418      3.599029  14 H  s               441     -3.599029  15 H  s         
   234      3.340130   6 H  s               257     -3.340130   7 H  s         
   280     -3.340130   8 H  s               303      3.340130   9 H  s         
    62     -2.052674   2 C  py              108     -2.052674   3 C  py        

 Vector   30  Occ=0.000000D+00  E= 7.727930D-02  Symmetry=b1
              MO Center=  5.4D-14, -4.3D-13,  9.7D-01, r^2= 3.8D+01
   Bfn.  Coefficient  Atom+Function         Bfn.  Coefficient  Atom+Function  
  ----- ------------  ---------------      ----- ------------  ---------------
    51      7.380363   2 C  s                97     -7.380363   3 C  s         
   326      6.431593  10 H  s               395     -6.431593  13 H  s         
    15      5.478469   1 O  px              234     -3.956844   6 H  s         
   257     -3.956844   7 H  s               280      3.956844   8 H  s         
   303      3.956844   9 H  s               143      3.062317   4 C  s         

 Vector   31  Occ=0.000000D+00  E= 8.283080D-02  Symmetry=a2
              MO Center=  2.7D-13, -1.1D-13, -5.0D-02, r^2= 3.7D+01
   Bfn.  Coefficient  Atom+Function         Bfn.  Coefficient  Atom+Function  
  ----- ------------  ---------------      ----- ------------  ---------------
   234      8.611297   6 H  s               257     -8.611297   7 H  s         
   280      8.611297   8 H  s               303     -8.611297   9 H  s         
   349      5.605128  11 H  s               372     -5.605128  12 H  s         
   418     -5.605128  14 H  s               441      5.605128  15 H  s         
    62     -4.595787   2 C  py              108      4.595787   3 C  py        

 Vector   32  Occ=0.000000D+00  E= 1.012033D-01  Symmetry=a1
              MO Center=  1.5D-13, -1.9D-14, -6.4D-02, r^2= 2.2D+01
   Bfn.  Coefficient  Atom+Function         Bfn.  Coefficient  Atom+Function  
  ----- ------------  ---------------      ----- ------------  ---------------
    51      5.043662   2 C  s                97      5.043662   3 C  s         
   143     -4.170827   4 C  s               189     -4.170827   5 C  s         
   155     -2.623949   4 C  pz              201     -2.623949   5 C  pz        
   325      2.233905  10 H  s               394      2.233905  13 H  s         
     5      1.943130   1 O  s                61     -1.775168   2 C  px        

 Vector   33  Occ=0.000000D+00  E= 1.119100D-01  Symmetry=a1
              MO Center=  1.1D-10, -1.9D-13, -7.8D-01, r^2= 2.9D+01
   Bfn.  Coefficient  Atom+Function         Bfn.  Coefficient  Atom+Function  
  ----- ------------  ---------------      ----- ------------  ---------------
    51     13.519690   2 C  s                97     13.519690   3 C  s         
   143    -11.660459   4 C  s               189    -11.660459   5 C  s         
   153     -6.469855   4 C  px              199      6.469855   5 C  px        
     5     -4.861245   1 O  s               326     -4.148582  10 H  s         
   395     -4.148582  13 H  s                63     -4.087483   2 C  pz        

 Vector   34  Occ=0.000000D+00  E= 1.227619D-01  Symmetry=b1
              MO Center=  2.6D-11,  7.8D-14,  1.6D-01, r^2= 2.7D+01
   Bfn.  Coefficient  Atom+Function         Bfn.  Coefficient  Atom+Function  
  ----- ------------  ---------------      ----- ------------  ---------------
    51     12.983415   2 C  s                97    -12.983415   3 C  s         
    61     11.739619   2 C  px              107     11.739619   3 C  px        
    15      9.516559   1 O  px              143      5.941568   4 C  s         
   189     -5.941568   5 C  s                63     -4.515611   2 C  pz        
   109      4.515611   3 C  pz              155      4.458880   4 C  pz        

 Vector   35  Occ=0.000000D+00  E= 1.305578D-01  Symmetry=a1
              MO Center=  9.0D-13, -5.3D-14,  3.5D-01, r^2= 2.5D+01
   Bfn.  Coefficient  Atom+Function         Bfn.  Coefficient  Atom+Function  
  ----- ------------  ---------------      ----- ------------  ---------------
   143     -7.751651   4 C  s               189     -7.751651   5 C  s         
    51      7.248709   2 C  s                97      7.248709   3 C  s         
   155     -4.724267   4 C  pz              201     -4.724267   5 C  pz        
    61     -4.586032   2 C  px              107      4.586032   3 C  px        
    63     -3.258975   2 C  pz              109     -3.258975   3 C  pz        

 Vector   36  Occ=0.000000D+00  E= 1.341125D-01  Symmetry=b2
              MO Center= -5.4D-14, -1.1D-13, -1.6D-01, r^2= 2.7D+01
   Bfn.  Coefficient  Atom+Function         Bfn.  Coefficient  Atom+Function  
  ----- ------------  ---------------      ----- ------------  ---------------
   154      4.494646   4 C  py              200      4.494646   5 C  py        
   349      3.378537  11 H  s               372     -3.378537  12 H  s         
   418      3.378537  14 H  s               441     -3.378537  15 H  s         
   348      2.442928  11 H  s               371     -2.442928  12 H  s         
   417      2.442928  14 H  s               440     -2.442928  15 H  s         

 Vector   37  Occ=0.000000D+00  E= 1.361933D-01  Symmetry=b2
              MO Center= -5.2D-14, -2.4D-13,  7.0D-01, r^2= 2.2D+01
   Bfn.  Coefficient  Atom+Function         Bfn.  Coefficient  Atom+Function  
  ----- ------------  ---------------      ----- ------------  ---------------
    62      4.586667   2 C  py              108      4.586667   3 C  py        
   234     -3.923582   6 H  s               257      3.923582   7 H  s         
   280      3.923582   8 H  s               303     -3.923582   9 H  s         
    16     -2.300553   1 O  py              348      1.243543  11 H  s         
   371     -1.243543  12 H  s               417      1.243543  14 H  s         

 Vector   38  Occ=0.000000D+00  E= 1.364194D-01  Symmetry=b1
              MO Center=  5.9D-11,  1.5D-14,  6.4D-01, r^2= 3.0D+01
   Bfn.  Coefficient  Atom+Function         Bfn.  Coefficient  Atom+Function  
  ----- ------------  ---------------      ----- ------------  ---------------
   143     12.799632   4 C  s               189    -12.799632   5 C  s         
    61     10.883451   2 C  px              107     10.883451   3 C  px        
    51     -7.286074   2 C  s                97      7.286074   3 C  s         
    63      6.698974   2 C  pz              109     -6.698974   3 C  pz        
   142     -6.136527   4 C  s               188      6.136527   5 C  s         

 Vector   39  Occ=0.000000D+00  E= 1.434564D-01  Symmetry=b1
              MO Center= -2.3D-10, -2.5D-13,  1.4D-01, r^2= 3.3D+01
   Bfn.  Coefficient  Atom+Function         Bfn.  Coefficient  Atom+Function  
  ----- ------------  ---------------      ----- ------------  ---------------
    51     17.582987   2 C  s                97    -17.582987   3 C  s         
   234      7.155314   6 H  s               257      7.155314   7 H  s         
   280     -7.155314   8 H  s               303     -7.155314   9 H  s         
    61      6.507374   2 C  px              107      6.507374   3 C  px        
    63     -5.597285   2 C  pz              109      5.597285   3 C  pz        

 Vector   40  Occ=0.000000D+00  E= 1.445597D-01  Symmetry=a1
              MO Center=  9.0D-12, -1.4D-13,  7.7D-01, r^2= 2.6D+01
   Bfn.  Coefficient  Atom+Function         Bfn.  Coefficient  Atom+Function  
  ----- ------------  ---------------      ----- ------------  ---------------
    51     10.919248   2 C  s                97     10.919248   3 C  s         
    61     -4.047907   2 C  px              107      4.047907   3 C  px        
     5     -3.998836   1 O  s               142      3.282314   4 C  s         
   188      3.282314   5 C  s                50      2.875254   2 C  s         
    96      2.875254   3 C  s               143     -2.783065   4 C  s         

 Vector   41  Occ=0.000000D+00  E= 1.467289D-01  Symmetry=a1
              MO Center= -4.0D-11, -1.1D-13,  4.0D-01, r^2= 2.1D+01
   Bfn.  Coefficient  Atom+Function         Bfn.  Coefficient  Atom+Function  
  ----- ------------  ---------------      ----- ------------  ---------------
   143      8.918575   4 C  s               189      8.918575   5 C  s         
     5     -4.689677   1 O  s                61      4.105930   2 C  px        
   107     -4.105930   3 C  px               51     -3.696814   2 C  s         
    97     -3.696814   3 C  s               326      3.676750  10 H  s         
   395      3.676750  13 H  s               142      2.745801   4 C  s         

 Vector   42  Occ=0.000000D+00  E= 1.560154D-01  Symmetry=a2
              MO Center= -1.8D-14, -4.6D-14, -1.6D-01, r^2= 3.0D+01
   Bfn.  Coefficient  Atom+Function         Bfn.  Coefficient  Atom+Function  
  ----- ------------  ---------------      ----- ------------  ---------------
   154      5.775435   4 C  py              200     -5.775435   5 C  py        
   349      5.485052  11 H  s               372     -5.485052  12 H  s         
   418     -5.485052  14 H  s               441      5.485052  15 H  s         
   234     -3.597806   6 H  s               257      3.597806   7 H  s         
   280     -3.597806   8 H  s               303      3.597806   9 H  s         

 Vector   43  Occ=0.000000D+00  E= 1.629472D-01  Symmetry=b1
              MO Center= -5.3D-11,  3.7D-12, -1.4D+00, r^2= 2.5D+01
   Bfn.  Coefficient  Atom+Function         Bfn.  Coefficient  Atom+Function  
  ----- ------------  ---------------      ----- ------------  ---------------
    61      8.590583   2 C  px              107      8.590583   3 C  px        
    15     -6.993312   1 O  px              326     -4.847122  10 H  s         
   395      4.847122  13 H  s               143      4.386985   4 C  s         
   189     -4.386985   5 C  s               155      4.362035   4 C  pz        
   201     -4.362035   5 C  pz               63      4.299426   2 C  pz        

 Vector   44  Occ=0.000000D+00  E= 1.792249D-01  Symmetry=a2
              MO Center= -4.4D-14,  3.2D-14,  7.9D-01, r^2= 2.5D+01
   Bfn.  Coefficient  Atom+Function         Bfn.  Coefficient  Atom+Function  
  ----- ------------  ---------------      ----- ------------  ---------------
    62     12.060055   2 C  py              108    -12.060055   3 C  py        
   234     -8.929572   6 H  s               257      8.929572   7 H  s         
   280     -8.929572   8 H  s               303      8.929572   9 H  s         
   154     -5.657450   4 C  py              200      5.657450   5 C  py        
   349     -3.888438  11 H  s               372      3.888438  12 H  s         

 Vector   45  Occ=0.000000D+00  E= 1.936524D-01  Symmetry=a1
              MO Center=  2.3D-12, -1.3D-14,  5.1D-01, r^2= 2.2D+01
   Bfn.  Coefficient  Atom+Function         Bfn.  Coefficient  Atom+Function  
  ----- ------------  ---------------      ----- ------------  ---------------
    51     24.289944   2 C  s                97     24.289944   3 C  s         
   143    -22.950340   4 C  s               189    -22.950340   5 C  s         
    61     -7.003573   2 C  px              107      7.003573   3 C  px        
   142     -6.958637   4 C  s               188     -6.958637   5 C  s         
    50      6.482351   2 C  s                96      6.482351   3 C  s         

 Vector   46  Occ=0.000000D+00  E= 2.012018D-01  Symmetry=b1
              MO Center=  2.0D-12, -1.1D-13,  1.3D+00, r^2= 2.2D+01
   Bfn.  Coefficient  Atom+Function         Bfn.  Coefficient  Atom+Function  
  ----- ------------  ---------------      ----- ------------  ---------------
    51     29.814081   2 C  s                97    -29.814081   3 C  s         
    61     16.623446   2 C  px              107     16.623446   3 C  px        
    15     15.833097   1 O  px              143     13.622237   4 C  s         
   189    -13.622237   5 C  s               325     -6.226844  10 H  s         
   394      6.226844  13 H  s                50      5.278085   2 C  s         

 Vector   47  Occ=0.000000D+00  E= 2.140943D-01  Symmetry=b2
              MO Center= -2.0D-13, -1.7D-13, -4.8D-01, r^2= 1.7D+01
   Bfn.  Coefficient  Atom+Function         Bfn.  Coefficient  Atom+Function  
  ----- ------------  ---------------      ----- ------------  ---------------
    16      4.108277   1 O  py              348      3.670085  11 H  s         
   371     -3.670085  12 H  s               417      3.670085  14 H  s         
   440     -3.670085  15 H  s                62     -2.961326   2 C  py        
   108     -2.961326   3 C  py              234      2.882373   6 H  s         
   257     -2.882373   7 H  s               280     -2.882373   8 H  s         

 Vector   48  Occ=0.000000D+00  E= 2.190812D-01  Symmetry=a1
              MO Center=  2.7D-11, -2.0D-14, -4.7D-01, r^2= 1.9D+01
   Bfn.  Coefficient  Atom+Function         Bfn.  Coefficient  Atom+Function  
  ----- ------------  ---------------      ----- ------------  ---------------
    51     18.224343   2 C  s                97     18.224343   3 C  s         
   143    -17.227601   4 C  s               189    -17.227601   5 C  s         
     5     -9.781674   1 O  s               153     -4.756184   4 C  px        
   199      4.756184   5 C  px               17     -4.339911   1 O  pz        
    63     -3.706033   2 C  pz              109     -3.706033   3 C  pz        

 Vector   49  Occ=0.000000D+00  E= 2.315128D-01  Symmetry=b2
              MO Center= -4.1D-15,  8.1D-14,  3.7D-01, r^2= 1.3D+01
   Bfn.  Coefficient  Atom+Function         Bfn.  Coefficient  Atom+Function  
  ----- ------------  ---------------      ----- ------------  ---------------
   233      1.757821   6 H  s               256     -1.757821   7 H  s         
   279     -1.757821   8 H  s               302      1.757821   9 H  s         
    62      1.675055   2 C  py              108      1.675055   3 C  py        
   243     -1.533823   6 H  pz              266      1.533823   7 H  pz        
   289      1.533823   8 H  pz              312     -1.533823   9 H  pz        

 Vector   50  Occ=0.000000D+00  E= 2.370169D-01  Symmetry=a2
              MO Center= -5.4D-14,  2.4D-12, -1.0D+00, r^2= 1.7D+01
   Bfn.  Coefficient  Atom+Function         Bfn.  Coefficient  Atom+Function  
  ----- ------------  ---------------      ----- ------------  ---------------
   348      6.801005  11 H  s               371     -6.801005  12 H  s         
   417     -6.801005  14 H  s               440      6.801005  15 H  s         
   233      5.906937   6 H  s               256     -5.906937   7 H  s         
   279      5.906937   8 H  s               302     -5.906937   9 H  s         
   234      3.481979   6 H  s               257     -3.481979   7 H  s         

 Vector   51  Occ=0.000000D+00  E= 2.597210D-01  Symmetry=a1
              MO Center= -1.1D-09,  5.2D-13, -5.1D-01, r^2= 1.8D+01
   Bfn.  Coefficient  Atom+Function         Bfn.  Coefficient  Atom+Function  
  ----- ------------  ---------------      ----- ------------  ---------------
    51     20.508645   2 C  s                97     20.508645   3 C  s         
   143    -18.210827   4 C  s               189    -18.210827   5 C  s         
     5    -10.726098   1 O  s               325      7.221150  10 H  s         
   394      7.221150  13 H  s                17     -6.598140   1 O  pz        
   153     -6.071545   4 C  px              199      6.071545   5 C  px        

 Vector   52  Occ=0.000000D+00  E= 2.621384D-01  Symmetry=b1
              MO Center=  2.4D-09,  6.8D-12,  3.7D-01, r^2= 2.2D+01
   Bfn.  Coefficient  Atom+Function         Bfn.  Coefficient  Atom+Function  
  ----- ------------  ---------------      ----- ------------  ---------------
   143     28.527108   4 C  s               189    -28.527108   5 C  s         
    61     22.449335   2 C  px              107     22.449335   3 C  px        
   325     -8.251411  10 H  s               394      8.251411  13 H  s         
   233      7.724727   6 H  s               256      7.724727   7 H  s         
   279     -7.724727   8 H  s               302     -7.724727   9 H  s         

 Vector   53  Occ=0.000000D+00  E= 2.664539D-01  Symmetry=b1
              MO Center= -4.4D-11, -1.8D-13, -8.2D-03, r^2= 1.9D+01
   Bfn.  Coefficient  Atom+Function         Bfn.  Coefficient  Atom+Function  
  ----- ------------  ---------------      ----- ------------  ---------------
    51     27.447842   2 C  s                97    -27.447842   3 C  s         
   143    -19.647441   4 C  s               189     19.647441   5 C  s         
    63    -11.179777   2 C  pz              109     11.179777   3 C  pz        
    15      9.768184   1 O  px              142      7.282048   4 C  s         
   188     -7.282048   5 C  s               348      7.098060  11 H  s         

 Vector   54  Occ=0.000000D+00  E= 2.732579D-01  Symmetry=a1
              MO Center= -7.6D-10,  3.7D-14,  2.1D-01, r^2= 1.4D+01
   Bfn.  Coefficient  Atom+Function         Bfn.  Coefficient  Atom+Function  
  ----- ------------  ---------------      ----- ------------  ---------------
   325      7.374479  10 H  s               394      7.374479  13 H  s         
     5      6.611916   1 O  s               143     -5.622966   4 C  s         
   189     -5.622966   5 C  s                51      3.984682   2 C  s         
    97      3.984682   3 C  s                61     -3.568581   2 C  px        
   107      3.568581   3 C  px              348     -3.319822  11 H  s         

 Vector   55  Occ=0.000000D+00  E= 2.824487D-01  Symmetry=a2
              MO Center= -2.9D-15, -2.4D-12,  4.1D-01, r^2= 1.4D+01
   Bfn.  Coefficient  Atom+Function         Bfn.  Coefficient  Atom+Function  
  ----- ------------  ---------------      ----- ------------  ---------------
    62      3.068361   2 C  py              108     -3.068361   3 C  py        
    75      2.148300   2 C  d -1            121     -2.148300   3 C  d -1      
   233      2.050140   6 H  s               256     -2.050140   7 H  s         
   279      2.050140   8 H  s               302     -2.050140   9 H  s         
   243     -1.938493   6 H  pz              266      1.938493   7 H  pz        

 Vector   56  Occ=0.000000D+00  E= 2.914262D-01  Symmetry=a1
              MO Center= -1.0D-09,  8.3D-15,  1.5D+00, r^2= 1.3D+01
   Bfn.  Coefficient  Atom+Function         Bfn.  Coefficient  Atom+Function  
  ----- ------------  ---------------      ----- ------------  ---------------
    51      6.743763   2 C  s                97      6.743763   3 C  s         
   143     -5.388068   4 C  s               189     -5.388068   5 C  s         
    61     -4.044563   2 C  px              107      4.044563   3 C  px        
    63     -3.135677   2 C  pz              109     -3.135677   3 C  pz        
    50      2.480738   2 C  s                96      2.480738   3 C  s         

 Vector   57  Occ=0.000000D+00  E= 3.020960D-01  Symmetry=b2
              MO Center= -1.1D-13,  8.5D-13, -1.4D-01, r^2= 1.3D+01
   Bfn.  Coefficient  Atom+Function         Bfn.  Coefficient  Atom+Function  
  ----- ------------  ---------------      ----- ------------  ---------------
   233      7.035914   6 H  s               256     -7.035914   7 H  s         
   279     -7.035914   8 H  s               302      7.035914   9 H  s         
   348      3.831185  11 H  s               371     -3.831185  12 H  s         
   417      3.831185  14 H  s               440     -3.831185  15 H  s         
    16     -2.799729   1 O  py               59     -2.719978   2 C  py        

 Vector   58  Occ=0.000000D+00  E= 3.023529D-01  Symmetry=b1
              MO Center= -2.4D-14, -2.9D-14,  1.7D-01, r^2= 1.7D+01
   Bfn.  Coefficient  Atom+Function         Bfn.  Coefficient  Atom+Function  
  ----- ------------  ---------------      ----- ------------  ---------------
    15     17.069733   1 O  px               51     12.921889   2 C  s         
    97    -12.921889   3 C  s               143      9.555630   4 C  s         
   189     -9.555630   5 C  s                61      8.065002   2 C  px        
   107      8.065002   3 C  px              325     -6.425107  10 H  s         
   394      6.425107  13 H  s               348      5.159938  11 H  s         

 Vector   59  Occ=0.000000D+00  E= 3.148751D-01  Symmetry=a1
              MO Center= -4.8D-10,  1.5D-15, -3.4D-02, r^2= 1.3D+01
   Bfn.  Coefficient  Atom+Function         Bfn.  Coefficient  Atom+Function  
  ----- ------------  ---------------      ----- ------------  ---------------
    51      9.753854   2 C  s                97      9.753854   3 C  s         
   143     -8.814474   4 C  s               189     -8.814474   5 C  s         
    50     -5.955212   2 C  s                96     -5.955212   3 C  s         
    17      3.325118   1 O  pz              325     -2.709585  10 H  s         
   394     -2.709585  13 H  s                61     -2.679920   2 C  px        

 Vector   60  Occ=0.000000D+00  E= 3.162582D-01  Symmetry=a1
              MO Center=  1.1D-09, -2.6D-13,  1.3D-02, r^2= 1.8D+01
   Bfn.  Coefficient  Atom+Function         Bfn.  Coefficient  Atom+Function  
  ----- ------------  ---------------      ----- ------------  ---------------
     5      9.020651   1 O  s                51     -6.320262   2 C  s         
    97     -6.320262   3 C  s               325     -6.140288  10 H  s         
   394     -6.140288  13 H  s               150     -5.887438   4 C  px        
   196      5.887438   5 C  px               17      5.811918   1 O  pz        
    58     -4.563458   2 C  px              104      4.563458   3 C  px        

 Vector   61  Occ=0.000000D+00  E= 3.215972D-01  Symmetry=b2
              MO Center=  1.9D-15, -1.1D-13,  1.7D-01, r^2= 1.6D+01
   Bfn.  Coefficient  Atom+Function         Bfn.  Coefficient  Atom+Function  
  ----- ------------  ---------------      ----- ------------  ---------------
    16      5.406786   1 O  py               62     -4.487589   2 C  py        
   108     -4.487589   3 C  py              233     -4.085780   6 H  s         
   256      4.085780   7 H  s               279      4.085780   8 H  s         
   302     -4.085780   9 H  s               234      2.614056   6 H  s         
   257     -2.614056   7 H  s               280     -2.614056   8 H  s         

 Vector   62  Occ=0.000000D+00  E= 3.238071D-01  Symmetry=b1
              MO Center= -6.7D-11, -1.4D-13, -5.5D-01, r^2= 2.1D+01
   Bfn.  Coefficient  Atom+Function         Bfn.  Coefficient  Atom+Function  
  ----- ------------  ---------------      ----- ------------  ---------------
   143     21.179151   4 C  s               189    -21.179151   5 C  s         
    51    -12.089169   2 C  s                97     12.089169   3 C  s         
    15     10.831058   1 O  px              142     -9.003035   4 C  s         
   188      9.003035   5 C  s               153      7.842412   4 C  px        
   199      7.842412   5 C  px               63      7.210843   2 C  pz        

 Vector   63  Occ=0.000000D+00  E= 3.411969D-01  Symmetry=b2
              MO Center=  1.2D-13, -1.3D-13, -3.6D-02, r^2= 2.1D+01
   Bfn.  Coefficient  Atom+Function         Bfn.  Coefficient  Atom+Function  
  ----- ------------  ---------------      ----- ------------  ---------------
   233      4.413071   6 H  s               256     -4.413071   7 H  s         
   279     -4.413071   8 H  s               302      4.413071   9 H  s         
   154      4.207951   4 C  py              200      4.207951   5 C  py        
    16     -3.504683   1 O  py              151      3.423009   4 C  py        
   197      3.423009   5 C  py              334     -2.965894  10 H  py        

 Vector   64  Occ=0.000000D+00  E= 3.437050D-01  Symmetry=a1
              MO Center= -1.5D-10, -1.2D-14, -1.1D+00, r^2= 1.7D+01
   Bfn.  Coefficient  Atom+Function         Bfn.  Coefficient  Atom+Function  
  ----- ------------  ---------------      ----- ------------  ---------------
    51      4.240591   2 C  s                97      4.240591   3 C  s         
   155     -3.823036   4 C  pz              201     -3.823036   5 C  pz        
     5     -3.289251   1 O  s               152     -2.798183   4 C  pz        
   198     -2.798183   5 C  pz              142     -2.438128   4 C  s         
   188     -2.438128   5 C  s               326      2.429040  10 H  s         

 Vector   65  Occ=0.000000D+00  E= 3.494031D-01  Symmetry=b1
              MO Center= -6.2D-13, -8.0D-14,  3.7D-01, r^2= 1.8D+01
   Bfn.  Coefficient  Atom+Function         Bfn.  Coefficient  Atom+Function  
  ----- ------------  ---------------      ----- ------------  ---------------
   143     29.331708   4 C  s               189    -29.331708   5 C  s         
    51    -20.672715   2 C  s                97     20.672715   3 C  s         
    61     15.651053   2 C  px              107     15.651053   3 C  px        
   142    -12.793192   4 C  s               188     12.793192   5 C  s         
    63      8.878035   2 C  pz              109     -8.878035   3 C  pz        

 Vector   66  Occ=0.000000D+00  E= 3.632158D-01  Symmetry=b2
              MO Center= -1.6D-13,  1.0D-13,  3.9D-01, r^2= 1.6D+01
   Bfn.  Coefficient  Atom+Function         Bfn.  Coefficient  Atom+Function  
  ----- ------------  ---------------      ----- ------------  ---------------
   348      3.790480  11 H  s               371     -3.790480  12 H  s         
   417      3.790480  14 H  s               440     -3.790480  15 H  s         
    62      2.992211   2 C  py              108      2.992211   3 C  py        
    59      2.415112   2 C  py              105      2.415112   3 C  py        
   334      2.033488  10 H  py              403      2.033488  13 H  py        

 Vector   67  Occ=0.000000D+00  E= 3.651212D-01  Symmetry=b1
              MO Center=  6.3D-11,  3.5D-11, -8.1D-01, r^2= 1.9D+01
   Bfn.  Coefficient  Atom+Function         Bfn.  Coefficient  Atom+Function  
  ----- ------------  ---------------      ----- ------------  ---------------
    15     24.144924   1 O  px               51     18.705437   2 C  s         
    97    -18.705437   3 C  s               325    -12.350529  10 H  s         
   394     12.350529  13 H  s               348      7.025929  11 H  s         
   371      7.025929  12 H  s               417     -7.025929  14 H  s         
   440     -7.025929  15 H  s               143      5.825887   4 C  s         

 Vector   68  Occ=0.000000D+00  E= 3.685328D-01  Symmetry=a2
              MO Center= -6.1D-14, -2.5D-12,  2.9D-01, r^2= 1.9D+01
   Bfn.  Coefficient  Atom+Function         Bfn.  Coefficient  Atom+Function  
  ----- ------------  ---------------      ----- ------------  ---------------
   154      5.230770   4 C  py              200     -5.230770   5 C  py        
   349      3.553125  11 H  s               372     -3.553125  12 H  s         
   418     -3.553125  14 H  s               441      3.553125  15 H  s         
   334     -2.882422  10 H  py              403      2.882422  13 H  py        
    62     -2.669532   2 C  py              108      2.669532   3 C  py        

 Vector   69  Occ=0.000000D+00  E= 3.687385D-01  Symmetry=a1
              MO Center= -3.9D-10,  2.6D-13,  4.1D-01, r^2= 1.6D+01
   Bfn.  Coefficient  Atom+Function         Bfn.  Coefficient  Atom+Function  
  ----- ------------  ---------------      ----- ------------  ---------------
     5     12.905123   1 O  s               325     12.317207  10 H  s         
   394     12.317207  13 H  s               143     -8.840287   4 C  s         
   189     -8.840287   5 C  s               150      4.853629   4 C  px        
   196     -4.853629   5 C  px               50     -3.710371   2 C  s         
    96     -3.710371   3 C  s                51     -2.667320   2 C  s         

 Vector   70  Occ=0.000000D+00  E= 3.789104D-01  Symmetry=a2
              MO Center= -8.1D-14, -4.3D-11, -9.9D-02, r^2= 1.8D+01
   Bfn.  Coefficient  Atom+Function         Bfn.  Coefficient  Atom+Function  
  ----- ------------  ---------------      ----- ------------  ---------------
   151      5.292155   4 C  py              197     -5.292155   5 C  py        
   234     -4.746966   6 H  s               257      4.746966   7 H  s         
   280     -4.746966   8 H  s               303      4.746966   9 H  s         
    74      4.626833   2 C  d -2            120      4.626833   3 C  d -2      
    62      3.603775   2 C  py              108     -3.603775   3 C  py        

 Vector   71  Occ=0.000000D+00  E= 3.811046D-01  Symmetry=b1
              MO Center= -9.1D-12,  1.7D-12, -3.2D-01, r^2= 1.8D+01
   Bfn.  Coefficient  Atom+Function         Bfn.  Coefficient  Atom+Function  
  ----- ------------  ---------------      ----- ------------  ---------------
    51     23.473873   2 C  s                97    -23.473873   3 C  s         
   143    -22.945020   4 C  s               189     22.945020   5 C  s         
    50    -13.771661   2 C  s                96     13.771661   3 C  s         
    15     -6.168439   1 O  px               58      5.955944   2 C  px        
   104      5.955944   3 C  px              348      5.615347  11 H  s         

 Vector   72  Occ=0.000000D+00  E= 3.872986D-01  Symmetry=a2
              MO Center=  3.1D-14,  1.5D-11, -1.6D-01, r^2= 1.8D+01
   Bfn.  Coefficient  Atom+Function         Bfn.  Coefficient  Atom+Function  
  ----- ------------  ---------------      ----- ------------  ---------------
    62     10.571807   2 C  py              108    -10.571807   3 C  py        
   234     -6.019430   6 H  s               257      6.019430   7 H  s         
   280     -6.019430   8 H  s               303      6.019430   9 H  s         
   154     -4.571361   4 C  py              200      4.571361   5 C  py        
    74     -3.647913   2 C  d -2            120     -3.647913   3 C  d -2      

 Vector   73  Occ=0.000000D+00  E= 3.877109D-01  Symmetry=b2
              MO Center= -2.7D-12,  7.9D-13, -1.1D-01, r^2= 1.4D+01
   Bfn.  Coefficient  Atom+Function         Bfn.  Coefficient  Atom+Function  
  ----- ------------  ---------------      ----- ------------  ---------------
   233      4.226010   6 H  s               256     -4.226010   7 H  s         
   279     -4.226010   8 H  s               302      4.226010   9 H  s         
   348      2.490495  11 H  s               371     -2.490495  12 H  s         
   417      2.490495  14 H  s               440     -2.490495  15 H  s         
   242     -1.785446   6 H  py              265     -1.785446   7 H  py        

 Vector   74  Occ=0.000000D+00  E= 3.987760D-01  Symmetry=b1
              MO Center=  1.4D-12, -1.6D-11,  1.1D+00, r^2= 1.5D+01
   Bfn.  Coefficient  Atom+Function         Bfn.  Coefficient  Atom+Function  
  ----- ------------  ---------------      ----- ------------  ---------------
    51     32.429154   2 C  s                97    -32.429154   3 C  s         
    15     26.867227   1 O  px              143     22.619412   4 C  s         
   189    -22.619412   5 C  s                61     18.299813   2 C  px        
   107     18.299813   3 C  px              325    -14.066941  10 H  s         
   394     14.066941  13 H  s               150     -6.032405   4 C  px        

 Vector   75  Occ=0.000000D+00  E= 4.060564D-01  Symmetry=a1
              MO Center=  3.8D-11, -4.0D-13,  1.6D-01, r^2= 1.6D+01
   Bfn.  Coefficient  Atom+Function         Bfn.  Coefficient  Atom+Function  
  ----- ------------  ---------------      ----- ------------  ---------------
    51     12.831950   2 C  s                97     12.831950   3 C  s         
   143     -8.741046   4 C  s               189     -8.741046   5 C  s         
   142      7.881759   4 C  s               188      7.881759   5 C  s         
    50      6.911248   2 C  s                96      6.911248   3 C  s         
     5     -3.979620   1 O  s                61     -3.320639   2 C  px        

 Vector   76  Occ=0.000000D+00  E= 4.222862D-01  Symmetry=a1
              MO Center=  1.1D-10,  1.3D-12,  3.7D-01, r^2= 1.5D+01
   Bfn.  Coefficient  Atom+Function         Bfn.  Coefficient  Atom+Function  
  ----- ------------  ---------------      ----- ------------  ---------------
    51      9.260743   2 C  s                97      9.260743   3 C  s         
   143     -9.129400   4 C  s               189     -9.129400   5 C  s         
   142     -8.524995   4 C  s               188     -8.524995   5 C  s         
    50      7.955701   2 C  s                96      7.955701   3 C  s         
   325      4.088782  10 H  s               394      4.088782  13 H  s         

 Vector   77  Occ=0.000000D+00  E= 4.252564D-01  Symmetry=b1
              MO Center= -4.4D-12, -1.6D-14, -1.5D-02, r^2= 1.8D+01
   Bfn.  Coefficient  Atom+Function         Bfn.  Coefficient  Atom+Function  
  ----- ------------  ---------------      ----- ------------  ---------------
    50      9.136279   2 C  s                96     -9.136279   3 C  s         
   325     -7.011495  10 H  s               394      7.011495  13 H  s         
    61      6.933084   2 C  px              107      6.933084   3 C  px        
    58     -5.590103   2 C  px              104     -5.590103   3 C  px        
    51      5.326304   2 C  s                97     -5.326304   3 C  s         

 Vector   78  Occ=0.000000D+00  E= 4.265366D-01  Symmetry=a1
              MO Center=  3.5D-10,  1.7D-12, -3.1D-01, r^2= 1.8D+01
   Bfn.  Coefficient  Atom+Function         Bfn.  Coefficient  Atom+Function  
  ----- ------------  ---------------      ----- ------------  ---------------
   143      7.842302   4 C  s               189      7.842302   5 C  s         
    51     -6.548241   2 C  s                97     -6.548241   3 C  s         
     5     -5.207627   1 O  s               333      3.724699  10 H  px        
   402     -3.724699  13 H  px               61      3.358241   2 C  px        
   107     -3.358241   3 C  px              142      3.111803   4 C  s         

 Vector   79  Occ=0.000000D+00  E= 4.327265D-01  Symmetry=a1
              MO Center=  1.5D-10, -5.3D-12, -6.3D-01, r^2= 1.5D+01
   Bfn.  Coefficient  Atom+Function         Bfn.  Coefficient  Atom+Function  
  ----- ------------  ---------------      ----- ------------  ---------------
   143     22.693658   4 C  s               189     22.693658   5 C  s         
    51    -21.746629   2 C  s                97    -21.746629   3 C  s         
     5     20.163536   1 O  s               348     -9.379787  11 H  s         
   371     -9.379787  12 H  s               417     -9.379787  14 H  s         
   440     -9.379787  15 H  s               142      8.583531   4 C  s         

 Vector   80  Occ=0.000000D+00  E= 4.356534D-01  Symmetry=b2
              MO Center=  9.0D-14,  2.7D-12,  1.4D-01, r^2= 1.2D+01
   Bfn.  Coefficient  Atom+Function         Bfn.  Coefficient  Atom+Function  
  ----- ------------  ---------------      ----- ------------  ---------------
   233      8.307552   6 H  s               256     -8.307552   7 H  s         
   279     -8.307552   8 H  s               302      8.307552   9 H  s         
    59     -6.127166   2 C  py              105     -6.127166   3 C  py        
    16     -3.234394   1 O  py              242     -2.912250   6 H  py        
   265     -2.912250   7 H  py              288     -2.912250   8 H  py        

 Vector   81  Occ=0.000000D+00  E= 4.360783D-01  Symmetry=a2
              MO Center=  1.0D-11, -4.9D-12, -7.9D-02, r^2= 1.6D+01
   Bfn.  Coefficient  Atom+Function         Bfn.  Coefficient  Atom+Function  
  ----- ------------  ---------------      ----- ------------  ---------------
   233      5.181102   6 H  s               256     -5.181102   7 H  s         
   279      5.181102   8 H  s               302     -5.181102   9 H  s         
   151      4.702801   4 C  py              197     -4.702801   5 C  py        
    74      3.965805   2 C  d -2            120      3.965805   3 C  d -2      
   348      3.806021  11 H  s               371     -3.806021  12 H  s         

 Vector   82  Occ=0.000000D+00  E= 4.397390D-01  Symmetry=a2
              MO Center= -1.2D-11, -2.0D-12, -2.0D-01, r^2= 1.6D+01
   Bfn.  Coefficient  Atom+Function         Bfn.  Coefficient  Atom+Function  
  ----- ------------  ---------------      ----- ------------  ---------------
   348      7.751797  11 H  s               371     -7.751797  12 H  s         
   417     -7.751797  14 H  s               440      7.751797  15 H  s         
   167     -4.327082   4 C  d -1            213      4.327082   5 C  d -1      
    62      2.876886   2 C  py              108     -2.876886   3 C  py        
    74     -2.674794   2 C  d -2            120     -2.674794   3 C  d -2      

 Vector   83  Occ=0.000000D+00  E= 4.558353D-01  Symmetry=b2
              MO Center=  4.2D-12, -6.8D-12, -2.5D-01, r^2= 1.5D+01
   Bfn.  Coefficient  Atom+Function         Bfn.  Coefficient  Atom+Function  
  ----- ------------  ---------------      ----- ------------  ---------------
   348      7.904386  11 H  s               371     -7.904386  12 H  s         
   417      7.904386  14 H  s               440     -7.904386  15 H  s         
   151      5.119557   4 C  py              197      5.119557   5 C  py        
    59     -4.876924   2 C  py              105     -4.876924   3 C  py        
   233      4.884514   6 H  s               256     -4.884514   7 H  s         

 Vector   84  Occ=0.000000D+00  E= 4.595316D-01  Symmetry=b1
              MO Center=  1.3D-11,  1.0D-13,  6.8D-02, r^2= 1.7D+01
   Bfn.  Coefficient  Atom+Function         Bfn.  Coefficient  Atom+Function  
  ----- ------------  ---------------      ----- ------------  ---------------
   325      9.995010  10 H  s               394     -9.995010  13 H  s         
   233     -7.430786   6 H  s               256     -7.430786   7 H  s         
   279      7.430786   8 H  s               302      7.430786   9 H  s         
    51      6.987290   2 C  s                97     -6.987290   3 C  s         
    60      5.726092   2 C  pz              106     -5.726092   3 C  pz        

 Vector   85  Occ=0.000000D+00  E= 4.611596D-01  Symmetry=a1
              MO Center= -3.0D-10,  1.2D-12,  6.3D-02, r^2= 1.4D+01
   Bfn.  Coefficient  Atom+Function         Bfn.  Coefficient  Atom+Function  
  ----- ------------  ---------------      ----- ------------  ---------------
     5     17.130761   1 O  s               325     11.476658  10 H  s         
   394     11.476658  13 H  s               142     -9.127737   4 C  s         
   188     -9.127737   5 C  s               233     -8.099501   6 H  s         
   256     -8.099501   7 H  s               279     -8.099501   8 H  s         
   302     -8.099501   9 H  s                50      6.732425   2 C  s         

 Vector   86  Occ=0.000000D+00  E= 4.708234D-01  Symmetry=b1
              MO Center= -1.1D-11,  1.9D-12,  2.4D-01, r^2= 1.4D+01
   Bfn.  Coefficient  Atom+Function         Bfn.  Coefficient  Atom+Function  
  ----- ------------  ---------------      ----- ------------  ---------------
    50    -12.258443   2 C  s                96     12.258443   3 C  s         
    15     11.316714   1 O  px              348      8.601492  11 H  s         
   371      8.601492  12 H  s               417     -8.601492  14 H  s         
   440     -8.601492  15 H  s               142     -7.634886   4 C  s         
   188      7.634886   5 C  s               325     -6.205456  10 H  s         

 Vector   87  Occ=0.000000D+00  E= 4.733183D-01  Symmetry=a2
              MO Center=  1.2D-12, -7.4D-12,  6.6D-01, r^2= 1.0D+01
   Bfn.  Coefficient  Atom+Function         Bfn.  Coefficient  Atom+Function  
  ----- ------------  ---------------      ----- ------------  ---------------
   348      7.424934  11 H  s               371     -7.424934  12 H  s         
   417     -7.424934  14 H  s               440      7.424934  15 H  s         
    75     -5.544435   2 C  d -1            121      5.544435   3 C  d -1      
    74     -4.384509   2 C  d -2            120     -4.384509   3 C  d -2      
   243      3.001766   6 H  pz              266     -3.001766   7 H  pz        

 Vector   88  Occ=0.000000D+00  E= 4.736528D-01  Symmetry=b2
              MO Center= -9.2D-13,  4.2D-12, -3.5D-01, r^2= 1.5D+01
   Bfn.  Coefficient  Atom+Function         Bfn.  Coefficient  Atom+Function  
  ----- ------------  ---------------      ----- ------------  ---------------
   348     15.459747  11 H  s               371    -15.459747  12 H  s         
   417     15.459747  14 H  s               440    -15.459747  15 H  s         
   233     11.932288   6 H  s               256    -11.932288   7 H  s         
   279    -11.932288   8 H  s               302     11.932288   9 H  s         
    59     -9.037178   2 C  py              105     -9.037178   3 C  py        

 Vector   89  Occ=0.000000D+00  E= 4.813195D-01  Symmetry=b2
              MO Center= -9.3D-13, -1.4D-11, -2.9D-01, r^2= 1.3D+01
   Bfn.  Coefficient  Atom+Function         Bfn.  Coefficient  Atom+Function  
  ----- ------------  ---------------      ----- ------------  ---------------
   348     13.957909  11 H  s               371    -13.957909  12 H  s         
   417     13.957909  14 H  s               440    -13.957909  15 H  s         
   151      8.783131   4 C  py              197      8.783131   5 C  py        
   233      7.443918   6 H  s               256     -7.443918   7 H  s         
   279     -7.443918   8 H  s               302      7.443918   9 H  s         

 Vector   90  Occ=0.000000D+00  E= 4.816267D-01  Symmetry=a2
              MO Center=  3.3D-13, -1.5D-11, -2.1D-01, r^2= 1.4D+01
   Bfn.  Coefficient  Atom+Function         Bfn.  Coefficient  Atom+Function  
  ----- ------------  ---------------      ----- ------------  ---------------
   348     16.568284  11 H  s               371    -16.568284  12 H  s         
   417    -16.568284  14 H  s               440     16.568284  15 H  s         
    74     -8.998559   2 C  d -2            120     -8.998559   3 C  d -2      
   233      5.257460   6 H  s               256     -5.257460   7 H  s         
   279      5.257460   8 H  s               302     -5.257460   9 H  s         

 Vector   91  Occ=0.000000D+00  E= 4.858917D-01  Symmetry=a1
              MO Center=  9.6D-11, -3.3D-12, -1.8D-01, r^2= 1.2D+01
   Bfn.  Coefficient  Atom+Function         Bfn.  Coefficient  Atom+Function  
  ----- ------------  ---------------      ----- ------------  ---------------
    51     17.219462   2 C  s                97     17.219462   3 C  s         
   143    -15.320111   4 C  s               189    -15.320111   5 C  s         
     5    -10.545162   1 O  s                50      4.953521   2 C  s         
    96      4.953521   3 C  s                17     -4.686791   1 O  pz        
   153     -4.697407   4 C  px              199      4.697407   5 C  px        

 Vector   92  Occ=0.000000D+00  E= 5.039624D-01  Symmetry=a1
              MO Center= -1.1D-10,  9.5D-14,  3.8D-01, r^2= 1.5D+01
   Bfn.  Coefficient  Atom+Function         Bfn.  Coefficient  Atom+Function  
  ----- ------------  ---------------      ----- ------------  ---------------
   325     18.305997  10 H  s               394     18.305997  13 H  s         
    50     15.094490   2 C  s                96     15.094490   3 C  s         
    51     14.187100   2 C  s                97     14.187100   3 C  s         
   143    -12.032944   4 C  s               189    -12.032944   5 C  s         
   348     -9.094281  11 H  s               371     -9.094281  12 H  s         


 center of mass
 --------------
 x =  -0.00000000 y =   0.00000000 z =  -0.01784680

 moments of inertia (a.u.)
 ------------------
         100.339244215766           0.000000000000           0.000000000000
           0.000000000000         850.892250784291           0.000000000000
           0.000000000000           0.000000000000         795.509023781260

  Mulliken analysis of the total density
  --------------------------------------

    Atom       Charge   Shell Charges
 -----------   ------   -------------------------------------------------------
    1 O    8     8.49   1.95  0.99  0.23  0.63  0.05  1.26  2.21  1.16 -0.06  0.00  0.04  0.01  0.00  0.00
    2 C    6     6.25   1.96  0.82  0.16  0.18  0.00  0.78  1.55  0.55  0.02  0.03  0.20 -0.02  0.01  0.01
    3 C    6     6.25   1.96  0.82  0.16  0.18  0.00  0.78  1.55  0.55  0.02  0.03  0.20 -0.02  0.01  0.01
    4 C    6     6.91   1.96  0.83  0.16  0.26 -0.04  0.82  1.66  1.09  0.02  0.02  0.10  0.04  0.00 -0.00
    5 C    6     6.91   1.96  0.83  0.16  0.26 -0.04  0.82  1.66  1.09  0.02  0.02  0.10  0.04  0.00 -0.00
    6 H    1     0.71   0.27  0.41 -0.03  0.00  0.01  0.02  0.02  0.00  0.00
    7 H    1     0.71   0.27  0.41 -0.03  0.00  0.01  0.02  0.02  0.00  0.00
    8 H    1     0.71   0.27  0.41 -0.03  0.00  0.01  0.02  0.02  0.00  0.00
    9 H    1     0.71   0.27  0.41 -0.03  0.00  0.01  0.02  0.02  0.00  0.00
   10 H    1     0.69   0.27  0.42 -0.05 -0.01  0.01  0.02  0.02  0.00  0.01
   11 H    1     0.74   0.27  0.41 -0.01 -0.00  0.01  0.02  0.04  0.00  0.00
   12 H    1     0.74   0.27  0.41 -0.01 -0.00  0.01  0.02  0.04  0.00  0.00
   13 H    1     0.69   0.27  0.42 -0.05 -0.01  0.01  0.02  0.02  0.00  0.01
   14 H    1     0.74   0.27  0.41 -0.01 -0.00  0.01  0.02  0.04  0.00  0.00
   15 H    1     0.74   0.27  0.41 -0.01 -0.00  0.01  0.02  0.04  0.00  0.00

       Multipole analysis of the density wrt the origin
       ------------------------------------------------

     L   x y z        total         open         nuclear
     -   - - -        -----         ----         -------
     0   0 0 0     -0.000000      0.000000     42.000000

     1   1 0 0      0.000000      0.000000      0.000000
     1   0 1 0     -0.000000      0.000000      0.000000
     1   0 0 1      0.469197      0.000000     -0.000000

     2   2 0 0    -23.191279      0.000000    473.987319
     2   1 1 0      0.000000      0.000000      0.000000
     2   1 0 1      0.000000      0.000000      0.000000
     2   0 2 0    -24.523120      0.000000     22.303484
     2   0 1 1     -0.000000      0.000000      0.000000
     2   0 0 2    -25.138628      0.000000     56.750297


------------------------------------------------------------
EAF file 0: "./molecule.aoints.0" size=6181355520 bytes
------------------------------------------------------------
               write      read    awrite     aread      wait
               -----      ----    ------     -----      ----
     calls:    17592        15         0    159057    159057
   data(b): 9.22e+09  7.86e+06  0.00e+00  8.34e+10
   time(s): 0.00e+00  0.00e+00  0.00e+00  0.00e+00  0.00e+00
rate(mb/s): 0.00e+00  0.00e+00
------------------------------------------------------------


 Parallel integral file used   38203 records with       0 large values


 Task  times  cpu:      132.9s     wall:      132.9s


                                NWChem Input Module
                                -------------------


 Summary of allocated global arrays
-----------------------------------
  No active global arrays


MA_summarize_allocated_blocks: starting scan ...
MA_summarize_allocated_blocks: scan completed: 0 heap blocks, 0 stack blocks
MA usage statistics:

	allocation statistics:
					      heap	     stack
					      ----	     -----
	current number of blocks	         0	         0
	maximum number of blocks	        17	        14
	current total bytes		         0	         0
	maximum total bytes		     80136	  36279784
	maximum total K-bytes		        81	     36280
	maximum total M-bytes		         1	        37


                                     CITATION
                                     --------
                Please cite the following reference when publishing
                           results obtained with NWChem:

          E. Apra, E. J. Bylaska, W. A. de Jong, N. Govind, K. Kowalski,
       T. P. Straatsma, M. Valiev, H. J. J. van Dam, Y. Alexeev, J. Anchell,
       V. Anisimov, F. W. Aquino, R. Atta-Fynn, J. Autschbach, N. P. Bauman,
     J. C. Becca, D. E. Bernholdt, K. Bhaskaran-Nair, S. Bogatko, P. Borowski,
         J. Boschen, J. Brabec, A. Bruner, E. Cauet, Y. Chen, G. N. Chuev,
      C. J. Cramer, J. Daily, M. J. O. Deegan, T. H. Dunning Jr., M. Dupuis,
   K. G. Dyall, G. I. Fann, S. A. Fischer, A. Fonari, H. Fruchtl, L. Gagliardi,
      J. Garza, N. Gawande, S. Ghosh, K. Glaesemann, A. W. Gotz, J. Hammond,
       V. Helms, E. D. Hermes, K. Hirao, S. Hirata, M. Jacquelin, L. Jensen,
   B. G. Johnson, H. Jonsson, R. A. Kendall, M. Klemm, R. Kobayashi, V. Konkov,
      S. Krishnamoorthy, M. Krishnan, Z. Lin, R. D. Lins, R. J. Littlefield,
      A. J. Logsdail, K. Lopata, W. Ma, A. V. Marenich, J. Martin del Campo,
   D. Mejia-Rodriguez, J. E. Moore, J. M. Mullin, T. Nakajima, D. R. Nascimento,
    J. A. Nichols, P. J. Nichols, J. Nieplocha, A. Otero-de-la-Roza, B. Palmer,
    A. Panyala, T. Pirojsirikul, B. Peng, R. Peverati, J. Pittner, L. Pollack,
   R. M. Richard, P. Sadayappan, G. C. Schatz, W. A. Shelton, D. W. Silverstein,
   D. M. A. Smith, T. A. Soares, D. Song, M. Swart, H. L. Taylor, G. S. Thomas,
            V. Tipparaju, D. G. Truhlar, K. Tsemekhman, T. Van Voorhis,
      A. Vazquez-Mayagoitia, P. Verma, O. Villa, A. Vishnu, K. D. Vogiatzis,
        D. Wang, J. H. Weare, M. J. Williamson, T. L. Windus, K. Wolinski,
        A. T. Wong, Q. Wu, C. Yang, Q. Yu, M. Zacharias, Z. Zhang, Y. Zhao,
                                and R. J. Harrison
                        "NWChem: Past, present, and future
                         J. Chem. Phys. 152, 184102 (2020)
                               doi:10.1063/5.0004997

                                      AUTHORS
                                      -------
  E. Apra, E. J. Bylaska, N. Govind, K. Kowalski, M. Valiev, D. Mejia-Rodriguez,
       A. Kunitsa, N. P. Bauman, A. Panyala, W. A. de Jong, T. P. Straatsma,
   H. J. J. van Dam, D. Wang, T. L. Windus, J. Hammond, J. Autschbach, A. Woods,
    K. Bhaskaran-Nair, J. Brabec, K. Lopata, S. A. Fischer, S. Krishnamoorthy,
     M. Jacquelin, W. Ma, M. Klemm, O. Villa, Y. Chen, V. Anisimov, F. Aquino,
     S. Hirata, M. T. Hackler, E. Hermes, L. Jensen, J. E. Moore, J. C. Becca,
      V. Konjkov, T. Risthaus, M. Malagoli, A. Marenich, A. Otero-de-la-Roza,
        J. Mullin, P. Nichols, R. Peverati, J. Pittner, Y. Zhao, P.-D. Fan,
        A. Fonari, M. J. Williamson, R. J. Harrison, J. R. Rehr, M. Dupuis,
     D. Silverstein, D. M. A. Smith, J. Nieplocha, V. Tipparaju, M. Krishnan,
     B. E. Van Kuiken, A. Vazquez-Mayagoitia, M. Swart, Q. Wu, T. Van Voorhis,
     A. A. Auer, M. Nooijen, L. D. Crosby, E. Brown, G. Cisneros, G. I. Fann,
   H. Fruchtl, J. Garza, K. Hirao, R. A. Kendall, J. A. Nichols, K. Tsemekhman,
    K. Wolinski, J. Anchell, D. E. Bernholdt, P. Borowski, T. Clark, D. Clerc,
   H. Dachsel, M. J. O. Deegan, K. Dyall, D. Elwood, E. Glendening, M. Gutowski,
   A. C. Hess, J. Jaffe, B. G. Johnson, J. Ju, R. Kobayashi, R. Kutteh, Z. Lin,
   R. Littlefield, X. Long, B. Meng, T. Nakajima, S. Niu, L. Pollack, M. Rosing,
   K. Glaesemann, G. Sandrone, M. Stave, H. Taylor, G. Thomas, J. H. van Lenthe,
                               A. T. Wong, Z. Zhang.

 Total times  cpu:      133.0s     wall:      133.0s
