 argument  1 = formaldehydeNotOptimized.nw



============================== echo of input deck ==============================
echo

start molecule

title "formaldehydeNotOptimized"
memory total 4 gb

charge 0
geometry units angstrom print xyz
 C 0.00000 0.00000 0.00000
 O 0.00000 0.00000 1.0
 H 0.30000 0.00000 0.00000
 H -0.3000 0.00000 0.00000
end

basis spherical
 * library cc-pVDZ
end

task scf optimize
================================================================================


                                         
                                         


             Northwest Computational Chemistry Package (NWChem) 7.2.2
             --------------------------------------------------------


                    Environmental Molecular Sciences Laboratory
                       Pacific Northwest National Laboratory
                                Richland, WA 99352

                              Copyright (c) 1994-2022
                       Pacific Northwest National Laboratory
                            Battelle Memorial Institute

             NWChem is an open-source computational chemistry package
                        distributed under the terms of the
                      Educational Community License (ECL) 2.0
             A copy of the license is included with this distribution
                              in the LICENSE.TXT file

                                  ACKNOWLEDGMENT
                                  --------------

            This software and its documentation were developed at the
            EMSL at Pacific Northwest National Laboratory, a multiprogram
            national laboratory, operated for the U.S. Department of Energy
            by Battelle under Contract Number DE-AC05-76RL01830. Support
            for this work was provided by the Department of Energy Office
            of Biological and Environmental Research, Office of Basic
            Energy Sciences, and the Office of Advanced Scientific Computing.


           Job information
           ---------------

    hostname        = Eliass-MacBook-Air.local
    program         = nwchem
    date            = Tue Mar 26 17:35:35 2024

    compiled        = Sun_Dec_10_10:51:21_2023
    source          = /private/tmp/nwchem-20231210-5888-3uvdjr/nwchem-7.2.2
    nwchem branch   = 7.2.2
    nwchem revision = 74936fb9
    ga revision     = 5.8.0
    use scalapack   = T
    input           = formaldehydeNotOptimized.nw
    prefix          = molecule.
    data base       = ./molecule.db
    status          = startup
    nproc           =        4
    time left       =     -1s



           Memory information
           ------------------

    heap     =  134217724 doubles =   1024.0 Mbytes
    stack    =  134217729 doubles =   1024.0 Mbytes
    global   =  268435456 doubles =   2048.0 Mbytes (distinct from heap & stack)
    total    =  536870909 doubles =   4096.0 Mbytes
    verify   = yes
    hardfail = no 


           Directory information
           ---------------------

  0 permanent = .
  0 scratch   = .




                                NWChem Input Module
                                -------------------


                             formaldehydeNotOptimized
                             ------------------------

 Scaling coordinates for geometry "geometry" by  1.889725989
 (inverse scale =  0.529177249)

 CS  symmetry detected

          ------
          auto-z
          ------
  no constraints, skipping    0.0000000000000000     
  no constraints, skipping    0.0000000000000000     


                             Geometry "geometry" -> ""
                             -------------------------

 Output coordinates in angstroms (scale by  1.889725989 to convert to a.u.)

  No.       Tag          Charge          X              Y              Z
 ---- ---------------- ---------- -------------- -------------- --------------
    1 C                    6.0000     0.00000000     0.50000000     0.00000000
    2 O                    8.0000     0.00000000    -0.50000000     0.00000000
    3 H                    1.0000     0.00000000     0.50000000     0.30000000
    4 H                    1.0000     0.00000000     0.50000000    -0.30000000

      Atomic Mass 
      ----------- 

      C                 12.000000
      O                 15.994910
      H                  1.007825


 Effective nuclear repulsion energy (a.u.)      55.5593180518

            Nuclear Dipole moment (a.u.) 
            ----------------------------
        X                 Y               Z
 ---------------- ---------------- ----------------
     0.0000000000    -0.0000000000     0.0000000000

      Symmetry information
      --------------------

 Group name             Cs        
 Group number              2
 Group order               2
 No. of unique centers     3

      Symmetry unique atoms

     1    2    3



                                Z-matrix (autoz)
                                -------- 

 Units are Angstrom for bonds and degrees for angles

      Type          Name      I     J     K     L     M      Value
      ----------- --------  ----- ----- ----- ----- ----- ----------
    1 Stretch                  1     2                       1.00000
    2 Stretch                  1     3                       0.30000
    3 Stretch                  1     4                       0.30000
    4 Stretch                  2     3                       1.04403
    5 Stretch                  2     4                       1.04403
    6 Stretch                  3     4                       0.60000
    7 Bend                     1     2     3                16.69924
    8 Bend                     1     2     4                16.69924
    9 Bend                     1     3     2                73.30076
   10 Bend                     1     4     2                73.30076
   11 Bend                     2     1     3                90.00000
   12 Bend                     2     1     4                90.00000
   13 Bend                     2     3     4                73.30076
   14 Bend                     2     4     3                73.30076
   15 Bend                     3     2     4                33.39849
   16 Torsion                  1     2     3     4           0.00000
   17 Torsion                  1     2     4     3           0.00000
   18 Torsion                  1     3     2     4           0.00000
   19 Torsion                  1     4     2     3           0.00000
   20 Torsion                  3     2     1     4         180.00000
   21 Torsion                  3     1     2     4         180.00000


            XYZ format geometry
            -------------------
     4
 geometry
 C                     0.00000000     0.50000000     0.00000000
 O                     0.00000000    -0.50000000     0.00000000
 H                     0.00000000     0.50000000     0.30000000
 H                     0.00000000     0.50000000    -0.30000000

 ==============================================================================
                                internuclear distances
 ------------------------------------------------------------------------------
       center one      |      center two      | atomic units |  angstroms
 ------------------------------------------------------------------------------
    2 O                |   1 C                |     1.88973  |     1.00000
    3 H                |   1 C                |     0.56692  |     0.30000
    3 H                |   2 O                |     1.97293  |     1.04403
    4 H                |   1 C                |     0.56692  |     0.30000
    4 H                |   2 O                |     1.97293  |     1.04403
    4 H                |   3 H                |     1.13384  |     0.60000
 ------------------------------------------------------------------------------
                         number of included internuclear distances:          6
 ==============================================================================



 ==============================================================================
                                 internuclear angles
 ------------------------------------------------------------------------------
        center 1       |       center 2       |       center 3       |  degrees
 ------------------------------------------------------------------------------
    2 O                |   1 C                |   3 H                |    90.00
    2 O                |   1 C                |   4 H                |    90.00
    3 H                |   1 C                |   4 H                |   180.00
    2 O                |   1 C                |   3 H                |    90.00
    2 O                |   1 C                |   4 H                |    90.00
    3 H                |   2 O                |   4 H                |    33.40
    3 H                |   1 C                |   2 O                |    90.00
    3 H                |   1 C                |   4 H                |   180.00
    3 H                |   2 O                |   4 H                |    33.40
    4 H                |   1 C                |   2 O                |    90.00
    4 H                |   1 C                |   3 H                |   180.00
    4 H                |   2 O                |   3 H                |    33.40
 ------------------------------------------------------------------------------
                            number of included internuclear angles:         12
 ==============================================================================



  atoms                     3  and                     1  are similar
  atom                     3  coordinates   0.0000000000000000       0.94486299428999998       0.56691779657400032     
  atom                     1  coordinates   0.0000000000000000       0.94486299428999998        0.0000000000000000     
  atoms                     4  and                     1  are similar
  atom                     4  coordinates   0.0000000000000000       0.94486299428999998      -0.56691779657400032     
  atom                     1  coordinates   0.0000000000000000       0.94486299428999998        0.0000000000000000     
  library name resolved from: .nwchemrc
  library file name is: </opt/homebrew/Cellar/nwchem/7.2.2/share/nwchem/libraries/>
  


 Summary of "ao basis" -> "" (spherical)
 ------------------------------------------------------------------------------
       Tag                 Description            Shells   Functions and Types
 ---------------- ------------------------------  ------  ---------------------
 *                          cc-pVDZ                   on all atoms 




                           NWChem Geometry Optimization
                           ----------------------------




                             formaldehydeNotOptimized


  no constraints, skipping    0.0000000000000000     
 maximum gradient threshold         (gmax) =   0.000450
 rms gradient threshold             (grms) =   0.000300
 maximum cartesian step threshold   (xmax) =   0.001800
 rms cartesian step threshold       (xrms) =   0.001200
 fixed trust radius                (trust) =   0.300000
 maximum step size to saddle      (sadstp) =   0.100000
 energy precision                  (eprec) =   1.0D-07
 maximum number of steps          (nptopt) =   40
 initial hessian option           (inhess) =    0
 line search option               (linopt) =    1
 hessian update option            (modupd) =    1
 saddle point option              (modsad) =    0
 initial eigen-mode to follow     (moddir) =    0
 initial variable to follow       (vardir) =    0
 follow first negative mode     (firstneg) =    T
 apply conjugacy                    (opcg) =    F
 source of zmatrix                         =   autoz   


          -------------------
          Energy Minimization
          -------------------


 Names of Z-matrix variables 
    1              2              3              4              5         
    6              7              8              9             10         
   11             12             13             14             15         
   16             17             18             19             20         
   21         

 Variables with the same non-blank name are constrained to be equal


 Using diagonal initial Hessian 
 Scaling for Hessian diagonals: bonds = 1.00  angles = 0.25  torsions = 0.10

          --------
          Step   0
          --------


                         Geometry "geometry" -> "geometry"
                         ---------------------------------

 Output coordinates in angstroms (scale by  1.889725989 to convert to a.u.)

  No.       Tag          Charge          X              Y              Z
 ---- ---------------- ---------- -------------- -------------- --------------
    1 C                    6.0000     0.00000000     0.50000000     0.00000000
    2 O                    8.0000     0.00000000    -0.50000000     0.00000000
    3 H                    1.0000     0.00000000     0.50000000     0.30000000
    4 H                    1.0000     0.00000000     0.50000000    -0.30000000

      Atomic Mass 
      ----------- 

      C                 12.000000
      O                 15.994910
      H                  1.007825


 Effective nuclear repulsion energy (a.u.)      55.5593180518

            Nuclear Dipole moment (a.u.) 
            ----------------------------
        X                 Y               Z
 ---------------- ---------------- ----------------
     0.0000000000    -0.0000000000     0.0000000000

      Symmetry information
      --------------------

 Group name             Cs        
 Group number              2
 Group order               2
 No. of unique centers     3

      Symmetry unique atoms

     1    2    3

                      Basis "ao basis" -> "ao basis" (spherical)
                      -----
  C (Carbon)
  ----------
            Exponent  Coefficients 
       -------------- ---------------------------------------------------------
  1 S  6.66500000E+03  0.000692
  1 S  1.00000000E+03  0.005329
  1 S  2.28000000E+02  0.027077
  1 S  6.47100000E+01  0.101718
  1 S  2.10600000E+01  0.274740
  1 S  7.49500000E+00  0.448564
  1 S  2.79700000E+00  0.285074
  1 S  5.21500000E-01  0.015204

  2 S  6.66500000E+03 -0.000146
  2 S  1.00000000E+03 -0.001154
  2 S  2.28000000E+02 -0.005725
  2 S  6.47100000E+01 -0.023312
  2 S  2.10600000E+01 -0.063955
  2 S  7.49500000E+00 -0.149981
  2 S  2.79700000E+00 -0.127262
  2 S  5.21500000E-01  0.544529

  3 S  1.59600000E-01  1.000000

  4 P  9.43900000E+00  0.038109
  4 P  2.00200000E+00  0.209480
  4 P  5.45600000E-01  0.508557

  5 P  1.51700000E-01  1.000000

  6 D  5.50000000E-01  1.000000

  O (Oxygen)
  ----------
            Exponent  Coefficients 
       -------------- ---------------------------------------------------------
  1 S  1.17200000E+04  0.000710
  1 S  1.75900000E+03  0.005470
  1 S  4.00800000E+02  0.027837
  1 S  1.13700000E+02  0.104800
  1 S  3.70300000E+01  0.283062
  1 S  1.32700000E+01  0.448719
  1 S  5.02500000E+00  0.270952
  1 S  1.01300000E+00  0.015458

  2 S  1.17200000E+04 -0.000160
  2 S  1.75900000E+03 -0.001263
  2 S  4.00800000E+02 -0.006267
  2 S  1.13700000E+02 -0.025716
  2 S  3.70300000E+01 -0.070924
  2 S  1.32700000E+01 -0.165411
  2 S  5.02500000E+00 -0.116955
  2 S  1.01300000E+00  0.557368

  3 S  3.02300000E-01  1.000000

  4 P  1.77000000E+01  0.043018
  4 P  3.85400000E+00  0.228913
  4 P  1.04600000E+00  0.508728

  5 P  2.75300000E-01  1.000000

  6 D  1.18500000E+00  1.000000

  H (Hydrogen)
  ------------
            Exponent  Coefficients 
       -------------- ---------------------------------------------------------
  1 S  1.30100000E+01  0.019685
  1 S  1.96200000E+00  0.137977
  1 S  4.44600000E-01  0.478148

  2 S  1.22000000E-01  1.000000

  3 P  7.27000000E-01  1.000000



 Summary of "ao basis" -> "ao basis" (spherical)
 ------------------------------------------------------------------------------
       Tag                 Description            Shells   Functions and Types
 ---------------- ------------------------------  ------  ---------------------
 C                          cc-pVDZ                  6       14   3s2p1d
 O                          cc-pVDZ                  6       14   3s2p1d
 H                          cc-pVDZ                  3        5   2s1p


                                 NWChem SCF Module
                                 -----------------


                             formaldehydeNotOptimized



  ao basis        = "ao basis"
  functions       =    38
  atoms           =     4
  closed shells   =     8
  open shells     =     0
  charge          =   0.00
  wavefunction    = RHF 
  input vectors   = atomic
  output vectors  = ./molecule.movecs
  use symmetry    = T
  symmetry adapt  = T


 Summary of "ao basis" -> "ao basis" (spherical)
 ------------------------------------------------------------------------------
       Tag                 Description            Shells   Functions and Types
 ---------------- ------------------------------  ------  ---------------------
 C                          cc-pVDZ                  6       14   3s2p1d
 O                          cc-pVDZ                  6       14   3s2p1d
 H                          cc-pVDZ                  3        5   2s1p


      Symmetry analysis of basis
      --------------------------

        a'         25
        a"         13


 Forming initial guess at       0.1s


      Superposition of Atomic Density Guess
      -------------------------------------

 Sum of atomic energies:        -113.42837521

      Non-variational initial energy
      ------------------------------

 Total energy =    -110.792494
 1-e energy   =    -244.287891
 2-e energy   =      77.936079
 HOMO         =      -0.444056
 LUMO         =      -0.220130


      Symmetry analysis of molecular orbitals - initial
      -------------------------------------------------

  Numbering of irreducible representations: 

     1 a'          2 a"      

  Orbital symmetries:

     1 a'          2 a'          3 a'          4 a"          5 a'      
     6 a'          7 a'          8 a"          9 a'         10 a'      
    11 a"         12 a'         13 a'         14 a"         15 a'      
    16 a'         17 a'         18 a"      


 Starting SCF solution at       0.1s



 ----------------------------------------------
         Quadratically convergent ROHF

 Convergence threshold     :          1.000E-04
 Maximum no. of iterations :           30
 Final Fock-matrix accuracy:          1.000E-07
 ----------------------------------------------


 #quartets = 9.609D+03 #integrals = 7.701D+04 #direct =  0.0% #cached =100.0%


 Integral file          = ./molecule.aoints.0
 Record size in doubles =  65536        No. of integs per rec  =  43688
 Max. records in memory =      4        Max. records in file   = 146360
 No. of bits per label  =      8        No. of bits per value  =     64


File balance: exchanges=     0  moved=     0  time=   0.0


              iter       energy          gnorm     gmax       time
             ----- ------------------- --------- --------- --------
                 1     -106.7048803201  1.42D+00  4.42D-01      0.2
                 2     -106.7797399485  3.05D-01  9.20D-02      0.2
                 3     -106.7846856244  1.43D-02  4.99D-03      0.2
                 4     -106.7847009700  7.98D-05  4.41D-05      0.2


       Final RHF  results 
       ------------------ 

         Total SCF energy =   -106.784700969976
      One-electron energy =   -247.756281941962
      Two-electron energy =     85.412262920220
 Nuclear repulsion energy =     55.559318051766

        Time for solution =      0.1s



       Symmetry analysis of molecular orbitals - final
       -----------------------------------------------

  Numbering of irreducible representations: 

     1 a'          2 a"      

  Orbital symmetries:

     1 a'          2 a'          3 a'          4 a"          5 a'      
     6 a'          7 a'          8 a"          9 a'         10 a"      
    11 a'         12 a'         13 a'         14 a"         15 a'      
    16 a'         17 a'         18 a"      

             Final eigenvalues
             -----------------

              1      
    1  -20.6194
    2  -12.2148
    3   -1.7004
    4   -1.1830
    5   -0.8664
    6   -0.7053
    7   -0.6976
    8   -0.4791
    9    0.1914
   10    0.2259
   11    0.2307
   12    0.3976
   13    0.5475
   14    0.7582
   15    0.9140
   16    1.0045
   17    1.1362
   18    1.1554

                       ROHF Final Molecular Orbital Analysis
                       -------------------------------------

 Vector    2  Occ=2.000000D+00  E=-1.221479D+01  Symmetry=a'
              MO Center= -1.1D-18,  5.0D-01,  1.0D-19, r^2= 2.8D-02
   Bfn.  Coefficient  Atom+Function         Bfn.  Coefficient  Atom+Function  
  ----- ------------  ---------------      ----- ------------  ---------------
     1      0.927548  1 C  s          

 Vector    3  Occ=2.000000D+00  E=-1.700372D+00  Symmetry=a'
              MO Center= -6.4D-17, -1.0D-01,  1.7D-16, r^2= 3.6D-01
   Bfn.  Coefficient  Atom+Function         Bfn.  Coefficient  Atom+Function  
  ----- ------------  ---------------      ----- ------------  ---------------
     5      0.360040  1 C  py                16     -0.355452  2 O  s          
     2     -0.231373  1 C  s                 19     -0.208248  2 O  py         
    17     -0.206823  2 O  s          

 Vector    4  Occ=2.000000D+00  E=-1.183022D+00  Symmetry=a"
              MO Center= -3.4D-18,  3.7D-01, -8.9D-17, r^2= 4.8D-01
   Bfn.  Coefficient  Atom+Function         Bfn.  Coefficient  Atom+Function  
  ----- ------------  ---------------      ----- ------------  ---------------
    30      1.014079  3 H  s                 35     -1.014079  4 H  s          
     6      0.800988  1 C  pz                29      0.758812  3 H  s          
    34     -0.758812  4 H  s                  9     -0.446891  1 C  pz         
    33     -0.315579  3 H  pz                38     -0.315579  4 H  pz         
    20      0.194043  2 O  pz         

 Vector    5  Occ=2.000000D+00  E=-8.663718D-01  Symmetry=a'
              MO Center= -2.5D-16, -2.0D-01, -6.2D-16, r^2= 1.0D+00
   Bfn.  Coefficient  Atom+Function         Bfn.  Coefficient  Atom+Function  
  ----- ------------  ---------------      ----- ------------  ---------------
    17      0.432554  2 O  s                 19     -0.327943  2 O  py         
    16      0.290922  2 O  s                  2     -0.279106  1 C  s          
    29     -0.214708  3 H  s                 34     -0.214708  4 H  s          

 Vector    6  Occ=2.000000D+00  E=-7.052937D-01  Symmetry=a'
              MO Center=  1.6D-16, -6.9D-02,  4.4D-16, r^2= 7.4D-01
   Bfn.  Coefficient  Atom+Function         Bfn.  Coefficient  Atom+Function  
  ----- ------------  ---------------      ----- ------------  ---------------
     4      0.552718  1 C  px                18      0.459966  2 O  px         
    21      0.247954  2 O  px         

 Vector    7  Occ=2.000000D+00  E=-6.975714D-01  Symmetry=a'
              MO Center=  8.4D-17,  2.9D-01,  2.7D-17, r^2= 1.1D+00
   Bfn.  Coefficient  Atom+Function         Bfn.  Coefficient  Atom+Function  
  ----- ------------  ---------------      ----- ------------  ---------------
     5      0.670979  1 C  py                19     -0.406934  2 O  py         
     3     -0.258637  1 C  s                 17      0.231382  2 O  s          
    30      0.222389  3 H  s                 35      0.222389  4 H  s          
    29      0.171838  3 H  s                 34      0.171838  4 H  s          
    22     -0.168904  2 O  py                 2      0.156751  1 C  s          

 Vector    8  Occ=2.000000D+00  E=-4.790930D-01  Symmetry=a"
              MO Center=  1.2D-16, -3.7D-01, -5.5D-17, r^2= 7.0D-01
   Bfn.  Coefficient  Atom+Function         Bfn.  Coefficient  Atom+Function  
  ----- ------------  ---------------      ----- ------------  ---------------
    20      0.660110  2 O  pz                23      0.543038  2 O  pz         
     6     -0.403961  1 C  pz                29     -0.390873  3 H  s          
    34      0.390873  4 H  s          

 Vector    9  Occ=0.000000D+00  E= 1.914260D-01  Symmetry=a'
              MO Center=  1.3D-16,  2.2D-01,  7.9D-16, r^2= 1.5D+00
   Bfn.  Coefficient  Atom+Function         Bfn.  Coefficient  Atom+Function  
  ----- ------------  ---------------      ----- ------------  ---------------
     7      0.697569  1 C  px                21     -0.648667  2 O  px         
     4      0.540096  1 C  px                18     -0.424928  2 O  px         

 Vector   10  Occ=0.000000D+00  E= 2.259285D-01  Symmetry=a"
              MO Center= -5.8D-19,  5.6D-01,  1.2D-13, r^2= 4.9D+00
   Bfn.  Coefficient  Atom+Function         Bfn.  Coefficient  Atom+Function  
  ----- ------------  ---------------      ----- ------------  ---------------
    30      9.485637  3 H  s                 35     -9.485637  4 H  s          
     9     -2.849936  1 C  pz                 6     -0.156949  1 C  pz         

 Vector   11  Occ=0.000000D+00  E= 2.306577D-01  Symmetry=a'
              MO Center= -1.1D-16,  7.3D-01, -7.0D-14, r^2= 4.3D+00
   Bfn.  Coefficient  Atom+Function         Bfn.  Coefficient  Atom+Function  
  ----- ------------  ---------------      ----- ------------  ---------------
     3      6.123376  1 C  s                 30     -3.130484  3 H  s          
    35     -3.130484  4 H  s                 22     -0.356920  2 O  py         
     5      0.181444  1 C  py         

 Vector   12  Occ=0.000000D+00  E= 3.976092D-01  Symmetry=a'
              MO Center= -6.2D-16,  7.4D-01,  6.9D-15, r^2= 3.1D+00
   Bfn.  Coefficient  Atom+Function         Bfn.  Coefficient  Atom+Function  
  ----- ------------  ---------------      ----- ------------  ---------------
    17     -2.075472  2 O  s                  3      1.976359  1 C  s          
     8     -1.849064  1 C  py                22     -0.521377  2 O  py         
    30     -0.311919  3 H  s                 35     -0.311919  4 H  s          
    29      0.156548  3 H  s                 34      0.156548  4 H  s          

 Vector   13  Occ=0.000000D+00  E= 5.474592D-01  Symmetry=a'
              MO Center=  2.0D-17,  4.9D-01, -8.4D-17, r^2= 2.2D+00
   Bfn.  Coefficient  Atom+Function         Bfn.  Coefficient  Atom+Function  
  ----- ------------  ---------------      ----- ------------  ---------------
     7      1.104148  1 C  px                 4     -0.803393  1 C  px         

 Vector   14  Occ=0.000000D+00  E= 7.582170D-01  Symmetry=a"
              MO Center=  7.0D-16,  5.4D-01, -1.2D-14, r^2= 3.3D+00
   Bfn.  Coefficient  Atom+Function         Bfn.  Coefficient  Atom+Function  
  ----- ------------  ---------------      ----- ------------  ---------------
    30     14.202909  3 H  s                 35    -14.202909  4 H  s          
     9     -6.720222  1 C  pz                23      0.528684  2 O  pz         
     6      0.446173  1 C  pz                29      0.379899  3 H  s          
    34     -0.379899  4 H  s                 11      0.254393  1 C  d -1       
    32     -0.232576  3 H  py                37      0.232576  4 H  py         

 Vector   15  Occ=0.000000D+00  E= 9.140375D-01  Symmetry=a'
              MO Center= -2.2D-16, -5.0D-01, -1.5D-14, r^2= 1.9D+00
   Bfn.  Coefficient  Atom+Function         Bfn.  Coefficient  Atom+Function  
  ----- ------------  ---------------      ----- ------------  ---------------
     3      4.026800  1 C  s                 30     -1.544858  3 H  s          
    35     -1.544858  4 H  s                 22      1.355410  2 O  py         
     2     -0.918598  1 C  s                 29     -0.848746  3 H  s          
    34     -0.848746  4 H  s                 17      0.619471  2 O  s          
     1     -0.320178  1 C  s                  5      0.311121  1 C  py         

 Vector   16  Occ=0.000000D+00  E= 1.004484D+00  Symmetry=a'
              MO Center=  4.7D-17,  3.9D-01, -6.2D-14, r^2= 2.9D+00
   Bfn.  Coefficient  Atom+Function         Bfn.  Coefficient  Atom+Function  
  ----- ------------  ---------------      ----- ------------  ---------------
     3     10.313832  1 C  s                 30     -3.543640  3 H  s          
    35     -3.543640  4 H  s                 17     -2.013746  2 O  s          
    22     -1.648499  2 O  py                29     -0.626727  3 H  s          
    34     -0.626727  4 H  s                  5     -0.522449  1 C  py         
     2     -0.413558  1 C  s                  8     -0.336220  1 C  py         

 Vector   17  Occ=0.000000D+00  E= 1.136227D+00  Symmetry=a'
              MO Center=  9.1D-17,  3.0D-01, -5.7D-15, r^2= 1.1D+00
   Bfn.  Coefficient  Atom+Function         Bfn.  Coefficient  Atom+Function  
  ----- ------------  ---------------      ----- ------------  ---------------
     5      0.635946  1 C  py                 8     -0.618918  1 C  py         
    17     -0.621600  2 O  s                 12     -0.597783  1 C  d  0       
    19      0.579530  2 O  py                14     -0.436235  1 C  d  2       
     3     -0.400974  1 C  s                 30      0.356272  3 H  s          
    35      0.356272  4 H  s                 22     -0.338604  2 O  py         

 Vector   18  Occ=0.000000D+00  E= 1.155443D+00  Symmetry=a"
              MO Center= -1.0D-15,  4.8D-01, -1.8D-14, r^2= 1.2D+00
   Bfn.  Coefficient  Atom+Function         Bfn.  Coefficient  Atom+Function  
  ----- ------------  ---------------      ----- ------------  ---------------
    13      2.235456  1 C  d  1              31      1.526507  3 H  px         
    36     -1.526507  4 H  px         


 center of mass
 --------------
 x =   0.00000000 y =  -0.06231572 z =   0.00000000

 moments of inertia (a.u.)
 ------------------
          27.323692908934           0.000000000000           0.000000000000
           0.000000000000           0.647821420228           0.000000000000
           0.000000000000           0.000000000000          26.675871488706

  Mulliken analysis of the total density
  --------------------------------------

    Atom       Charge   Shell Charges
 -----------   ------   -------------------------------------------------------
    1 C    6     5.90   1.86  0.78 -0.41  3.88 -0.23  0.02
    2 O    8     7.93   2.00  0.83  0.80  2.90  1.36  0.03
    3 H    1     1.09   1.15  0.50 -0.56
    4 H    1     1.09   1.15  0.50 -0.56

       Multipole analysis of the density wrt the origin
       ------------------------------------------------

     L   x y z        total         open         nuclear
     -   - - -        -----         ----         -------
     0   0 0 0     -0.000000      0.000000     16.000000

     1   1 0 0     -0.000000      0.000000      0.000000
     1   0 1 0      0.328879      0.000000     -0.000000
     1   0 0 1      0.000000      0.000000      0.000000

     2   2 0 0     -7.071444      0.000000      0.000000
     2   1 1 0     -0.000000      0.000000      0.000000
     2   1 0 1      0.000000      0.000000      0.000000
     2   0 2 0     -8.523347      0.000000     14.284257
     2   0 1 1     -0.000000      0.000000      0.000000
     2   0 0 2     -7.491483      0.000000      0.642792


 Parallel integral file used       4 records with       0 large values

                              NWChem Gradients Module
                              -----------------------


                             formaldehydeNotOptimized


  wavefunction    =   RHF     

  Using symmetry


                         RHF ENERGY GRADIENTS

    atom               coordinates                        gradient
                 x          y          z           x          y          z
   1 C       0.000000   0.944863   0.000000   -0.000000  -0.249194   0.000000
   2 O       0.000000  -0.944863   0.000000   -0.000000   0.860695   0.000000
   3 H       0.000000   0.944863   0.566918    0.000000  -0.305751 -12.138846
   4 H       0.000000   0.944863  -0.566918    0.000000  -0.305751  12.138846

                 ----------------------------------------
                 |  Time  |  1-e(secs)   |  2-e(secs)   |
                 ----------------------------------------
                 |  CPU   |       0.00   |       0.22   |
                 ----------------------------------------
                 |  WALL  |       0.00   |       0.22   |
                 ----------------------------------------
  no constraints, skipping    0.0000000000000000     

@ Step       Energy      Delta E   Gmax     Grms     Xrms     Xmax   Walltime
@ ---- ---------------- -------- -------- -------- -------- -------- --------
@    0    -106.78470097  0.0D+00  3.79623  1.49768  0.00000  0.00000      0.4
                                                                    



                                Z-matrix (autoz)
                                -------- 

 Units are Angstrom for bonds and degrees for angles

      Type          Name      I     J     K     L     M      Value     Gradient
      ----------- --------  ----- ----- ----- ----- ----- ---------- ----------
    1 Stretch                  1     2                       1.00000   -1.32303
    2 Stretch                  1     3                       0.30000   -1.89812
    3 Stretch                  1     4                       0.30000   -1.89812
    4 Stretch                  2     3                       1.04403   -1.63040
    5 Stretch                  2     4                       1.04403   -1.63040
    6 Stretch                  3     4                       0.60000   -3.79623
    7 Bend                     1     2     3                16.69924   -1.42962
    8 Bend                     1     2     4                16.69924   -1.42962
    9 Bend                     1     3     2                73.30076    0.79535
   10 Bend                     1     4     2                73.30076    0.79535
   11 Bend                     2     1     3                90.00000    0.63427
   12 Bend                     2     1     4                90.00000    0.63427
   13 Bend                     2     3     4                73.30076    1.42962
   14 Bend                     2     4     3                73.30076    1.42962
   15 Bend                     3     2     4                33.39849   -2.85925
   16 Torsion                  1     2     3     4           0.00000   -0.00000
   17 Torsion                  1     2     4     3           0.00000    0.00000
   18 Torsion                  1     3     2     4           0.00000    0.00000
   19 Torsion                  1     4     2     3           0.00000   -0.00000
   20 Torsion                  3     2     1     4         180.00000   -0.00000
   21 Torsion                  3     1     2     4         180.00000    0.00000

 Restricting large step in mode    3 eval= 7.6D-02 step= 3.2D-01 new= 3.0D-01
 Restricting large step in mode    4 eval= 2.9D-01 step= 1.4D+01 new= 3.0D-01
 Restricting large step in mode    5 eval= 5.3D-01 step= 1.0D+01 new= 3.0D-01
  no constraints, skipping    0.0000000000000000     
  no constraints, skipping    0.0000000000000000     
  no constraints, skipping    0.0000000000000000     
  no constraints, skipping    0.0000000000000000     
  no constraints, skipping    0.0000000000000000     
  no constraints, skipping    0.0000000000000000     
  no constraints, skipping    0.0000000000000000     
  no constraints, skipping    0.0000000000000000     
                                 NWChem SCF Module
                                 -----------------


                             formaldehydeNotOptimized



  ao basis        = "ao basis"
  functions       =    38
  atoms           =     4
  closed shells   =     8
  open shells     =     0
  charge          =   0.00
  wavefunction    = RHF 
  input vectors   = ./molecule.movecs
  output vectors  = ./molecule.movecs
  use symmetry    = T
  symmetry adapt  = T


 Summary of "ao basis" -> "ao basis" (spherical)
 ------------------------------------------------------------------------------
       Tag                 Description            Shells   Functions and Types
 ---------------- ------------------------------  ------  ---------------------
 C                          cc-pVDZ                  6       14   3s2p1d
 O                          cc-pVDZ                  6       14   3s2p1d
 H                          cc-pVDZ                  3        5   2s1p


      Symmetry analysis of basis
      --------------------------

        a'         25
        a"         13


 Forming initial guess at       0.4s


 Loading old vectors from job with title :

formaldehydeNotOptimized


      Symmetry analysis of molecular orbitals - initial
      -------------------------------------------------

  Numbering of irreducible representations: 

     1 a'          2 a"      

  Orbital symmetries:

     1 a'          2 a'          3 a'          4 a"          5 a'      
     6 a'          7 a'          8 a"          9 a'         10 a"      
    11 a'         12 a'         13 a'         14 a"         15 a'      
    16 a'         17 a'         18 a"      


 Starting SCF solution at       0.4s



 ----------------------------------------------
         Quadratically convergent ROHF

 Convergence threshold     :          1.000E-04
 Maximum no. of iterations :           30
 Final Fock-matrix accuracy:          1.000E-07
 ----------------------------------------------

  avail0,avail1,avail0-avail1                308112               308112                    0
  avail0,avail1,avail0-avail1                308112               308112                    0
  avail0,avail1,avail0-avail1                308112               308128                  -16
  avail0,avail1,avail0-avail1                308112               308128                  -16

 #quartets = 9.609D+03 #integrals = 8.382D+04 #direct =  0.0% #cached =100.0%


 Integral file          = ./molecule.aoints.0
 Record size in doubles =  65536        No. of integs per rec  =  43688
 Max. records in memory =      4        Max. records in file   =   9146
 No. of bits per label  =      8        No. of bits per value  =     64


File balance: exchanges=     0  moved=     0  time=   0.0


              iter       energy          gnorm     gmax       time
             ----- ------------------- --------- --------- --------
                 1     -109.1223011986  1.18D+00  4.81D-01      0.5
                 2     -109.1511773668  1.44D-01  3.96D-02      0.5
                 3     -109.1523334684  8.10D-03  3.66D-03      0.5
                 4     -109.1523385565  1.67D-05  5.47D-06      0.5


       Final RHF  results 
       ------------------ 

         Total SCF energy =   -109.152338556451
      One-electron energy =   -244.266299624967
      Two-electron energy =     84.201563453624
 Nuclear repulsion energy =     50.912397614893

        Time for solution =      0.1s



       Symmetry analysis of molecular orbitals - final
       -----------------------------------------------

  Numbering of irreducible representations: 

     1 a'          2 a"      

  Orbital symmetries:

     1 a'          2 a'          3 a'          4 a"          5 a'      
     6 a'          7 a'          8 a"          9 a'         10 a"      
    11 a'         12 a'         13 a'         14 a"         15 a'      
    16 a'         17 a'         18 a"      

             Final eigenvalues
             -----------------

              1      
    1  -20.5956
    2  -11.8151
    3   -1.6562
    4   -1.1445
    5   -0.8884
    6   -0.6933
    7   -0.6721
    8   -0.4665
    9    0.1948
   10    0.2251
   11    0.2282
   12    0.3918
   13    0.5675
   14    0.7748
   15    0.9062
   16    0.9812
   17    1.1160
   18    1.1638

                       ROHF Final Molecular Orbital Analysis
                       -------------------------------------

 Vector    2  Occ=2.000000D+00  E=-1.181507D+01  Symmetry=a'
              MO Center=  8.3D-15,  4.9D-01,  3.9D-17, r^2= 2.8D-02
   Bfn.  Coefficient  Atom+Function         Bfn.  Coefficient  Atom+Function  
  ----- ------------  ---------------      ----- ------------  ---------------
     1      0.941445  1 C  s          

 Vector    3  Occ=2.000000D+00  E=-1.656155D+00  Symmetry=a'
              MO Center= -2.4D-14, -1.2D-01, -8.2D-16, r^2= 3.9D-01
   Bfn.  Coefficient  Atom+Function         Bfn.  Coefficient  Atom+Function  
  ----- ------------  ---------------      ----- ------------  ---------------
    16      0.355613  2 O  s                  5     -0.298321  1 C  py         
    17      0.233942  2 O  s                  2      0.220019  1 C  s          
    19      0.197542  2 O  py         

 Vector    4  Occ=2.000000D+00  E=-1.144507D+00  Symmetry=a"
              MO Center= -9.7D-15,  3.7D-01,  4.8D-16, r^2= 5.2D-01
   Bfn.  Coefficient  Atom+Function         Bfn.  Coefficient  Atom+Function  
  ----- ------------  ---------------      ----- ------------  ---------------
    30      0.809081  3 H  s                 35     -0.809081  4 H  s          
     6      0.684873  1 C  pz                29      0.581383  3 H  s          
    34     -0.581383  4 H  s                  9     -0.411620  1 C  pz         
    33     -0.214176  3 H  pz                38     -0.214176  4 H  pz         
    20      0.192455  2 O  pz         

 Vector    5  Occ=2.000000D+00  E=-8.883573D-01  Symmetry=a'
              MO Center= -8.1D-14,  6.2D-02,  1.7D-16, r^2= 1.1D+00
   Bfn.  Coefficient  Atom+Function         Bfn.  Coefficient  Atom+Function  
  ----- ------------  ---------------      ----- ------------  ---------------
    17      0.362650  2 O  s                 29     -0.320988  3 H  s          
    34     -0.320988  4 H  s                  3      0.295514  1 C  s          
    16      0.279509  2 O  s                  2     -0.252377  1 C  s          
    19     -0.233810  2 O  py                 5     -0.206599  1 C  py         
    30     -0.156565  3 H  s                 35     -0.156565  4 H  s          

 Vector    6  Occ=2.000000D+00  E=-6.933437D-01  Symmetry=a'
              MO Center= -1.9D-12, -2.6D-02, -2.2D-16, r^2= 1.1D+00
   Bfn.  Coefficient  Atom+Function         Bfn.  Coefficient  Atom+Function  
  ----- ------------  ---------------      ----- ------------  ---------------
     5      0.579120  1 C  py                19     -0.472622  2 O  py         
    17      0.300540  2 O  s                  3     -0.298711  1 C  s          
    30      0.213421  3 H  s                 35      0.213421  4 H  s          
    22     -0.212189  2 O  py                29      0.181152  3 H  s          
    34      0.181152  4 H  s          

 Vector    7  Occ=2.000000D+00  E=-6.720621D-01  Symmetry=a'
              MO Center=  2.1D-12, -9.8D-02,  1.6D-16, r^2= 7.7D-01
   Bfn.  Coefficient  Atom+Function         Bfn.  Coefficient  Atom+Function  
  ----- ------------  ---------------      ----- ------------  ---------------
     4      0.489764  1 C  px                18      0.462261  2 O  px         
    21      0.261439  2 O  px         

 Vector    8  Occ=2.000000D+00  E=-4.665000D-01  Symmetry=a"
              MO Center= -9.0D-15, -3.9D-01, -8.1D-17, r^2= 7.2D-01
   Bfn.  Coefficient  Atom+Function         Bfn.  Coefficient  Atom+Function  
  ----- ------------  ---------------      ----- ------------  ---------------
    20      0.655496  2 O  pz                23      0.540370  2 O  pz         
     6     -0.334511  1 C  pz                29     -0.315266  3 H  s          
    34      0.315266  4 H  s          

 Vector    9  Occ=0.000000D+00  E= 1.948454D-01  Symmetry=a'
              MO Center= -3.9D-12,  2.3D-01,  3.7D-16, r^2= 1.6D+00
   Bfn.  Coefficient  Atom+Function         Bfn.  Coefficient  Atom+Function  
  ----- ------------  ---------------      ----- ------------  ---------------
     7      0.724414  1 C  px                21     -0.638694  2 O  px         
     4      0.478041  1 C  px                18     -0.414655  2 O  px         

 Vector   10  Occ=0.000000D+00  E= 2.251495D-01  Symmetry=a"
              MO Center= -8.2D-14,  6.1D-01, -1.2D-15, r^2= 4.9D+00
   Bfn.  Coefficient  Atom+Function         Bfn.  Coefficient  Atom+Function  
  ----- ------------  ---------------      ----- ------------  ---------------
    30      7.881631  3 H  s                 35     -7.881631  4 H  s          
     9     -2.881582  1 C  pz         

 Vector   11  Occ=0.000000D+00  E= 2.281621D-01  Symmetry=a'
              MO Center=  3.4D-12,  7.9D-01, -1.9D-14, r^2= 4.2D+00
   Bfn.  Coefficient  Atom+Function         Bfn.  Coefficient  Atom+Function  
  ----- ------------  ---------------      ----- ------------  ---------------
     3      5.535678  1 C  s                 30     -2.888797  3 H  s          
    35     -2.888797  4 H  s                 22     -0.341649  2 O  py         
    17     -0.170087  2 O  s          

 Vector   12  Occ=0.000000D+00  E= 3.917584D-01  Symmetry=a'
              MO Center=  2.2D-13,  6.9D-01,  4.8D-16, r^2= 3.1D+00
   Bfn.  Coefficient  Atom+Function         Bfn.  Coefficient  Atom+Function  
  ----- ------------  ---------------      ----- ------------  ---------------
    17      1.995889  2 O  s                  8      1.816733  1 C  py         
     3     -1.469260  1 C  s                 22      0.495917  2 O  py         
    29     -0.191923  3 H  s                 34     -0.191923  4 H  s          

 Vector   13  Occ=0.000000D+00  E= 5.674531D-01  Symmetry=a'
              MO Center=  1.2D-12,  4.8D-01, -6.2D-16, r^2= 2.2D+00
   Bfn.  Coefficient  Atom+Function         Bfn.  Coefficient  Atom+Function  
  ----- ------------  ---------------      ----- ------------  ---------------
     7      1.090662  1 C  px                 4     -0.778811  1 C  px         

 Vector   14  Occ=0.000000D+00  E= 7.748004D-01  Symmetry=a"
              MO Center=  1.3D-12,  5.8D-01, -4.3D-15, r^2= 3.4D+00
   Bfn.  Coefficient  Atom+Function         Bfn.  Coefficient  Atom+Function  
  ----- ------------  ---------------      ----- ------------  ---------------
    30     11.720650  3 H  s                 35    -11.720650  4 H  s          
     9     -6.730545  1 C  pz                23      0.548063  2 O  pz         
     6      0.492938  1 C  pz                29      0.302986  3 H  s          
    34     -0.302986  4 H  s                 11      0.181578  1 C  d -1       

 Vector   15  Occ=0.000000D+00  E= 9.062184D-01  Symmetry=a'
              MO Center= -4.3D-13,  3.4D-01, -2.1D-14, r^2= 2.3D+00
   Bfn.  Coefficient  Atom+Function         Bfn.  Coefficient  Atom+Function  
  ----- ------------  ---------------      ----- ------------  ---------------
     3      7.596617  1 C  s                 30     -2.660741  3 H  s          
    35     -2.660741  4 H  s                 29     -1.014853  3 H  s          
    34     -1.014853  4 H  s                  2     -0.850431  1 C  s          
    17     -0.577295  2 O  s                 22      0.345190  2 O  py         
     8     -0.333667  1 C  py                 1     -0.281686  1 C  s          

 Vector   16  Occ=0.000000D+00  E= 9.812098D-01  Symmetry=a'
              MO Center= -6.3D-14, -4.8D-01,  8.5D-15, r^2= 2.4D+00
   Bfn.  Coefficient  Atom+Function         Bfn.  Coefficient  Atom+Function  
  ----- ------------  ---------------      ----- ------------  ---------------
     3      6.418210  1 C  s                 30     -2.077966  3 H  s          
    35     -2.077966  4 H  s                 22     -2.061883  2 O  py         
    17     -2.005931  2 O  s                  5     -0.583569  1 C  py         
    19      0.276128  2 O  py                32     -0.252492  3 H  py         
    37     -0.252492  4 H  py                 8     -0.203735  1 C  py         

 Vector   17  Occ=0.000000D+00  E= 1.116027D+00  Symmetry=a'
              MO Center= -7.6D-14,  2.9D-01, -1.9D-15, r^2= 1.3D+00
   Bfn.  Coefficient  Atom+Function         Bfn.  Coefficient  Atom+Function  
  ----- ------------  ---------------      ----- ------------  ---------------
     3      1.910569  1 C  s                 30     -0.903014  3 H  s          
    35     -0.903014  4 H  s                  8      0.615398  1 C  py         
     5     -0.610208  1 C  py                19     -0.551417  2 O  py         
    12      0.547450  1 C  d  0              17      0.473748  2 O  s          
    14      0.456229  1 C  d  2               2     -0.378542  1 C  s          

 Vector   18  Occ=0.000000D+00  E= 1.163832D+00  Symmetry=a"
              MO Center= -1.1D-12,  4.4D-01, -2.5D-14, r^2= 1.1D+00
   Bfn.  Coefficient  Atom+Function         Bfn.  Coefficient  Atom+Function  
  ----- ------------  ---------------      ----- ------------  ---------------
    13      2.181534  1 C  d  1              31      1.258784  3 H  px         
    36     -1.258784  4 H  px         


 center of mass
 --------------
 x =   0.00000000 y =  -0.08792439 z =   0.00000000

 moments of inertia (a.u.)
 ------------------
          28.612512949977          -0.000000000000           0.000000000000
          -0.000000000000           0.949342534831           0.000000000000
           0.000000000000           0.000000000000          27.663170415147

  Mulliken analysis of the total density
  --------------------------------------

    Atom       Charge   Shell Charges
 -----------   ------   -------------------------------------------------------
    1 C    6     5.12   1.88  0.67 -0.64  3.37 -0.18  0.02
    2 O    8     8.00   2.00  0.83  0.82  2.89  1.42  0.02
    3 H    1     1.44   1.20  0.53 -0.29
    4 H    1     1.44   1.20  0.53 -0.29

       Multipole analysis of the density wrt the origin
       ------------------------------------------------

     L   x y z        total         open         nuclear
     -   - - -        -----         ----         -------
     0   0 0 0     -0.000000      0.000000     16.000000

     1   1 0 0     -0.000000      0.000000      0.000000
     1   0 1 0      0.488628      0.000000     -0.357214
     1   0 0 1      0.000000      0.000000      0.000000

     2   2 0 0     -7.121383      0.000000      0.000000
     2   1 1 0      0.000000      0.000000      0.000000
     2   1 0 1     -0.000000      0.000000      0.000000
     2   0 2 0     -8.436679      0.000000     14.887908
     2   0 1 1     -0.000000      0.000000      0.000000
     2   0 0 2     -7.563290      0.000000      0.941972


 Parallel integral file used       4 records with       0 large values

 Line search: 
     step= 1.00 grad=-2.9D+00 hess= 5.3D-01 energy=   -109.152339 mode=downhill
 new step= 2.74                   predicted energy=   -110.748827
  no constraints, skipping    0.0000000000000000     
  no constraints, skipping    0.0000000000000000     
  no constraints, skipping    0.0000000000000000     
  no constraints, skipping    0.0000000000000000     
  no constraints, skipping    0.0000000000000000     
  no constraints, skipping    0.0000000000000000     
  no constraints, skipping    0.0000000000000000     
  no constraints, skipping    0.0000000000000000     

          --------
          Step   1
          --------


                         Geometry "geometry" -> "geometry"
                         ---------------------------------

 Output coordinates in angstroms (scale by  1.889725989 to convert to a.u.)

  No.       Tag          Charge          X              Y              Z
 ---- ---------------- ---------- -------------- -------------- --------------
    1 C                    6.0000     0.00000000     0.46617732     0.00000000
    2 O                    8.0000    -0.00000000    -0.55228445     0.00000000
    3 H                    1.0000    -0.00000000     0.54305357     0.47692825
    4 H                    1.0000    -0.00000000     0.54305357    -0.47692825

      Atomic Mass 
      ----------- 

      C                 12.000000
      O                 15.994910
      H                  1.007825


 Effective nuclear repulsion energy (a.u.)      45.7270128298

            Nuclear Dipole moment (a.u.) 
            ----------------------------
        X                 Y               Z
 ---------------- ---------------- ----------------
     0.0000000000    -1.0112010466     0.0000000000

      Symmetry information
      --------------------

 Group name             Cs        
 Group number              2
 Group order               2
 No. of unique centers     3

      Symmetry unique atoms

     1    2    3

                                 NWChem SCF Module
                                 -----------------


                             formaldehydeNotOptimized



  ao basis        = "ao basis"
  functions       =    38
  atoms           =     4
  closed shells   =     8
  open shells     =     0
  charge          =   0.00
  wavefunction    = RHF 
  input vectors   = ./molecule.movecs
  output vectors  = ./molecule.movecs
  use symmetry    = T
  symmetry adapt  = T


 Summary of "ao basis" -> "ao basis" (spherical)
 ------------------------------------------------------------------------------
       Tag                 Description            Shells   Functions and Types
 ---------------- ------------------------------  ------  ---------------------
 C                          cc-pVDZ                  6       14   3s2p1d
 O                          cc-pVDZ                  6       14   3s2p1d
 H                          cc-pVDZ                  3        5   2s1p


      Symmetry analysis of basis
      --------------------------

        a'         25
        a"         13


 Forming initial guess at       0.6s


 Loading old vectors from job with title :

formaldehydeNotOptimized


      Symmetry analysis of molecular orbitals - initial
      -------------------------------------------------

  Numbering of irreducible representations: 

     1 a'          2 a"      

  Orbital symmetries:

     1 a'          2 a'          3 a'          4 a"          5 a'      
     6 a'          7 a'          8 a"          9 a'         10 a"      
    11 a'         12 a'         13 a'         14 a"         15 a'      
    16 a'         17 a'         18 a"      


 Starting SCF solution at       0.6s



 ----------------------------------------------
         Quadratically convergent ROHF

 Convergence threshold     :          1.000E-04
 Maximum no. of iterations :           30
 Final Fock-matrix accuracy:          1.000E-07
 ----------------------------------------------


 #quartets = 9.609D+03 #integrals = 8.383D+04 #direct =  0.0% #cached =100.0%


 Integral file          = ./molecule.aoints.0
 Record size in doubles =  65536        No. of integs per rec  =  43688
 Max. records in memory =      4        Max. records in file   = 146360
 No. of bits per label  =      8        No. of bits per value  =     64


File balance: exchanges=     0  moved=     0  time=   0.0


              iter       energy          gnorm     gmax       time
             ----- ------------------- --------- --------- --------
                 1     -111.5195676499  1.52D+00  6.16D-01      0.6
                 2     -111.5756239035  3.37D-01  1.58D-01      0.6
                 3     -111.5794582191  1.20D-01  5.57D-02      0.6
                 4     -111.5798086900  4.80D-03  2.32D-03      0.6
                 5     -111.5798121218  1.69D-05  6.98D-06      0.6


       Final RHF  results 
       ------------------ 

         Total SCF energy =   -111.579812121819
      One-electron energy =   -239.966278747252
      Two-electron energy =     82.659453795640
 Nuclear repulsion energy =     45.727012829793

        Time for solution =      0.1s



       Symmetry analysis of molecular orbitals - final
       -----------------------------------------------

  Numbering of irreducible representations: 

     1 a'          2 a"      

  Orbital symmetries:

     1 a'          2 a'          3 a'          4 a"          5 a'      
     6 a'          7 a'          8 a"          9 a'         10 a'      
    11 a"         12 a'         13 a'         14 a"         15 a'      
    16 a'         17 a'         18 a"      

             Final eigenvalues
             -----------------

              1      
    1  -20.5580
    2  -11.4229
    3   -1.6017
    4   -1.0614
    5   -0.9243
    6   -0.6797
    7   -0.6356
    8   -0.4401
    9    0.2066
   10    0.2261
   11    0.2266
   12    0.3852
   13    0.6005
   14    0.8116
   15    0.8392
   16    1.0105
   17    1.1102
   18    1.1787

                       ROHF Final Molecular Orbital Analysis
                       -------------------------------------

 Vector    2  Occ=2.000000D+00  E=-1.142286D+01  Symmetry=a'
              MO Center=  3.7D-14,  4.7D-01,  6.5D-17, r^2= 2.8D-02
   Bfn.  Coefficient  Atom+Function         Bfn.  Coefficient  Atom+Function  
  ----- ------------  ---------------      ----- ------------  ---------------
     1      0.969163  1 C  s          

 Vector    3  Occ=2.000000D+00  E=-1.601704D+00  Symmetry=a'
              MO Center= -1.6D-13, -1.4D-01, -3.8D-15, r^2= 4.2D-01
   Bfn.  Coefficient  Atom+Function         Bfn.  Coefficient  Atom+Function  
  ----- ------------  ---------------      ----- ------------  ---------------
    16      0.360280  2 O  s                 17      0.266768  2 O  s          
     5     -0.240478  1 C  py                 2      0.213648  1 C  s          
    19      0.192216  2 O  py                29      0.154818  3 H  s          
    34      0.154818  4 H  s          

 Vector    4  Occ=2.000000D+00  E=-1.061420D+00  Symmetry=a"
              MO Center=  9.9D-14,  3.5D-01,  3.5D-15, r^2= 6.1D-01
   Bfn.  Coefficient  Atom+Function         Bfn.  Coefficient  Atom+Function  
  ----- ------------  ---------------      ----- ------------  ---------------
    30      0.597792  3 H  s                 35     -0.597792  4 H  s          
     6      0.587077  1 C  pz                29      0.402109  3 H  s          
    34     -0.402109  4 H  s                  9     -0.382589  1 C  pz         
    20      0.209825  2 O  pz         

 Vector    5  Occ=2.000000D+00  E=-9.243447D-01  Symmetry=a'
              MO Center= -7.8D-13,  3.1D-01,  2.5D-16, r^2= 1.0D+00
   Bfn.  Coefficient  Atom+Function         Bfn.  Coefficient  Atom+Function  
  ----- ------------  ---------------      ----- ------------  ---------------
    29      0.394287  3 H  s                 34      0.394287  4 H  s          
     3     -0.294602  1 C  s                  5      0.276777  1 C  py         
    17     -0.268124  2 O  s                 16     -0.256486  2 O  s          
     2      0.206168  1 C  s          

 Vector    6  Occ=2.000000D+00  E=-6.796686D-01  Symmetry=a'
              MO Center= -1.8D-12, -3.6D-01,  7.1D-17, r^2= 9.4D-01
   Bfn.  Coefficient  Atom+Function         Bfn.  Coefficient  Atom+Function  
  ----- ------------  ---------------      ----- ------------  ---------------
    19      0.524105  2 O  py                 5     -0.463272  1 C  py         
    17     -0.348870  2 O  s                 22      0.254812  2 O  py         
     3      0.178403  1 C  s          

 Vector    7  Occ=2.000000D+00  E=-6.356401D-01  Symmetry=a'
              MO Center=  2.9D-12, -1.4D-01,  3.3D-17, r^2= 8.0D-01
   Bfn.  Coefficient  Atom+Function         Bfn.  Coefficient  Atom+Function  
  ----- ------------  ---------------      ----- ------------  ---------------
    18      0.465913  2 O  px                 4      0.425501  1 C  px         
    21      0.275096  2 O  px                 7      0.156152  1 C  px         

 Vector    8  Occ=2.000000D+00  E=-4.400732D-01  Symmetry=a"
              MO Center=  2.5D-14, -3.7D-01, -1.1D-14, r^2= 7.7D-01
   Bfn.  Coefficient  Atom+Function         Bfn.  Coefficient  Atom+Function  
  ----- ------------  ---------------      ----- ------------  ---------------
    20      0.637844  2 O  pz                23      0.520157  2 O  pz         
     6     -0.282329  1 C  pz                29     -0.260307  3 H  s          
    34      0.260307  4 H  s          

 Vector    9  Occ=0.000000D+00  E= 2.065707D-01  Symmetry=a'
              MO Center= -2.0D-11,  2.5D-01, -4.7D-16, r^2= 1.7D+00
   Bfn.  Coefficient  Atom+Function         Bfn.  Coefficient  Atom+Function  
  ----- ------------  ---------------      ----- ------------  ---------------
     7      0.784750  1 C  px                21     -0.636612  2 O  px         
     4      0.399234  1 C  px                18     -0.398513  2 O  px         

 Vector   10  Occ=0.000000D+00  E= 2.260789D-01  Symmetry=a'
              MO Center=  2.1D-11,  8.6D-01, -7.5D-16, r^2= 4.1D+00
   Bfn.  Coefficient  Atom+Function         Bfn.  Coefficient  Atom+Function  
  ----- ------------  ---------------      ----- ------------  ---------------
     3      4.550030  1 C  s                 30     -2.487330  3 H  s          
    35     -2.487330  4 H  s                 22     -0.287825  2 O  py         
    17     -0.195739  2 O  s          

 Vector   11  Occ=0.000000D+00  E= 2.265629D-01  Symmetry=a"
              MO Center= -2.6D-13,  7.4D-01,  1.2D-14, r^2= 5.0D+00
   Bfn.  Coefficient  Atom+Function         Bfn.  Coefficient  Atom+Function  
  ----- ------------  ---------------      ----- ------------  ---------------
    30      5.871047  3 H  s                 35     -5.871047  4 H  s          
     9     -2.808147  1 C  pz         

 Vector   12  Occ=0.000000D+00  E= 3.852230D-01  Symmetry=a'
              MO Center=  5.0D-13,  6.2D-01,  8.7D-17, r^2= 3.1D+00
   Bfn.  Coefficient  Atom+Function         Bfn.  Coefficient  Atom+Function  
  ----- ------------  ---------------      ----- ------------  ---------------
    17      1.898702  2 O  s                  8      1.788822  1 C  py         
     3     -1.059131  1 C  s                 22      0.429329  2 O  py         
    29     -0.200634  3 H  s                 34     -0.200634  4 H  s          

 Vector   13  Occ=0.000000D+00  E= 6.004786D-01  Symmetry=a'
              MO Center=  3.0D-12,  4.4D-01, -9.3D-16, r^2= 2.1D+00
   Bfn.  Coefficient  Atom+Function         Bfn.  Coefficient  Atom+Function  
  ----- ------------  ---------------      ----- ------------  ---------------
     7      1.061370  1 C  px                 4     -0.800193  1 C  px         

 Vector   14  Occ=0.000000D+00  E= 8.116062D-01  Symmetry=a"
              MO Center=  2.9D-12,  6.3D-01,  1.2D-14, r^2= 3.4D+00
   Bfn.  Coefficient  Atom+Function         Bfn.  Coefficient  Atom+Function  
  ----- ------------  ---------------      ----- ------------  ---------------
    30      8.620137  3 H  s                 35     -8.620137  4 H  s          
     9     -6.558610  1 C  pz                 6      0.602273  1 C  pz         
    23      0.560845  2 O  pz                29      0.333949  3 H  s          
    34     -0.333949  4 H  s          

 Vector   15  Occ=0.000000D+00  E= 8.392190D-01  Symmetry=a'
              MO Center= -2.9D-12,  6.6D-01, -1.5D-14, r^2= 2.1D+00
   Bfn.  Coefficient  Atom+Function         Bfn.  Coefficient  Atom+Function  
  ----- ------------  ---------------      ----- ------------  ---------------
     3      7.699062  1 C  s                 30     -2.479645  3 H  s          
    35     -2.479645  4 H  s                 17     -1.431109  2 O  s          
    29     -0.898678  3 H  s                 34     -0.898678  4 H  s          
     2     -0.578616  1 C  s                 22     -0.534003  2 O  py         
     8     -0.297932  1 C  py                 1     -0.223923  1 C  s          

 Vector   16  Occ=0.000000D+00  E= 1.010457D+00  Symmetry=a'
              MO Center=  5.1D-14, -9.2D-01,  1.3D-16, r^2= 1.4D+00
   Bfn.  Coefficient  Atom+Function         Bfn.  Coefficient  Atom+Function  
  ----- ------------  ---------------      ----- ------------  ---------------
     3      2.207379  1 C  s                 22     -1.968180  2 O  py         
    17     -1.469398  2 O  s                  5     -0.632984  1 C  py         
    30     -0.603696  3 H  s                 35     -0.603696  4 H  s          
     2      0.532742  1 C  s                 19      0.311265  2 O  py         
     1      0.234685  1 C  s                 29      0.230915  3 H  s          

 Vector   17  Occ=0.000000D+00  E= 1.110198D+00  Symmetry=a'
              MO Center= -3.8D-13,  3.5D-01,  9.6D-15, r^2= 1.4D+00
   Bfn.  Coefficient  Atom+Function         Bfn.  Coefficient  Atom+Function  
  ----- ------------  ---------------      ----- ------------  ---------------
     3      2.609730  1 C  s                 30     -1.151687  3 H  s          
    35     -1.151687  4 H  s                  8      0.695315  1 C  py         
     5     -0.579225  1 C  py                 2     -0.506147  1 C  s          
    12      0.490835  1 C  d  0              19     -0.473122  2 O  py         
    14      0.443709  1 C  d  2              17      0.350100  2 O  s          

 Vector   18  Occ=0.000000D+00  E= 1.178695D+00  Symmetry=a"
              MO Center= -4.0D-13, -6.4D-01, -2.8D-15, r^2= 1.6D+00
   Bfn.  Coefficient  Atom+Function         Bfn.  Coefficient  Atom+Function  
  ----- ------------  ---------------      ----- ------------  ---------------
    23      1.656481  2 O  pz                11      1.360307  1 C  d -1       
     9     -1.080753  1 C  pz                32     -0.682314  3 H  py         
    37      0.682314  4 H  py                20     -0.671169  2 O  pz         
    30      0.564258  3 H  s                 35     -0.564258  4 H  s          


 center of mass
 --------------
 x =   0.00000000 y =  -0.13506827 z =   0.00000000

 moments of inertia (a.u.)
 ------------------
          29.947619932637          -0.000000000001           0.000000000000
          -0.000000000001           1.637264647768           0.000000000000
           0.000000000000           0.000000000000          28.310355284869

  Mulliken analysis of the total density
  --------------------------------------

    Atom       Charge   Shell Charges
 -----------   ------   -------------------------------------------------------
    1 C    6     4.84   1.94  0.57 -0.49  2.89 -0.16  0.10
    2 O    8     8.10   2.00  0.83  0.84  2.91  1.49  0.02
    3 H    1     1.53   1.15  0.44 -0.06
    4 H    1     1.53   1.15  0.44 -0.06

       Multipole analysis of the density wrt the origin
       ------------------------------------------------

     L   x y z        total         open         nuclear
     -   - - -        -----         ----         -------
     0   0 0 0     -0.000000      0.000000     16.000000

     1   1 0 0     -0.000000      0.000000      0.000000
     1   0 1 0      0.692197      0.000000     -1.011201
     1   0 0 1      0.000000      0.000000      0.000000

     2   2 0 0     -7.174627      0.000000      0.000000
     2   1 1 0      0.000000      0.000000      0.000000
     2   1 0 1     -0.000000      0.000000      0.000000
     2   0 2 0     -8.388317      0.000000     15.476589
     2   0 1 1     -0.000000      0.000000      0.000000
     2   0 0 2     -7.669213      0.000000      1.624553


 Parallel integral file used       4 records with       0 large values

                              NWChem Gradients Module
                              -----------------------


                             formaldehydeNotOptimized


  wavefunction    =   RHF     

  Using symmetry


                         RHF ENERGY GRADIENTS

    atom               coordinates                        gradient
                 x          y          z           x          y          z
   1 C       0.000000   0.880947   0.000000   -0.000000   0.747097   0.000000
   2 O      -0.000000  -1.043666   0.000000   -0.000000   0.772371   0.000000
   3 H      -0.000000   1.026222   0.901264    0.000000  -0.759734  -3.481640
   4 H      -0.000000   1.026222  -0.901264    0.000000  -0.759734   3.481640

                 ----------------------------------------
                 |  Time  |  1-e(secs)   |  2-e(secs)   |
                 ----------------------------------------
                 |  CPU   |       0.00   |       0.23   |
                 ----------------------------------------
                 |  WALL  |       0.00   |       0.23   |
                 ----------------------------------------
  no constraints, skipping    0.0000000000000000     

  Step       Energy      Delta E   Gmax     Grms     Xrms     Xmax   Walltime
  ---- ---------------- -------- -------- -------- -------- -------- --------
@    1    -111.57981212 -4.8D+00  1.34215  0.49546  0.14364  0.33253      0.9
                                                                    



                                Z-matrix (autoz)
                                -------- 

 Units are Angstrom for bonds and degrees for angles

      Type          Name      I     J     K     L     M      Value     Gradient
      ----------- --------  ----- ----- ----- ----- ----- ---------- ----------
    1 Stretch                  1     2                       1.01846   -0.45600
    2 Stretch                  1     3                       0.48308   -0.67614
    3 Stretch                  1     4                       0.48308   -0.67614
    4 Stretch                  2     3                       1.19467   -0.76445
    5 Stretch                  2     4                       1.19467   -0.76445
    6 Stretch                  3     4                       0.95386   -1.34215
    7 Bend                     1     2     3                23.52910   -0.33405
    8 Bend                     1     2     4                23.52910   -0.33405
    9 Bend                     1     3     2                57.31413    0.28787
   10 Bend                     1     4     2                57.31413    0.28787
   11 Bend                     2     1     3                99.15677    0.04617
   12 Bend                     2     1     4                99.15677    0.04617
   13 Bend                     2     3     4                66.47090    0.33405
   14 Bend                     2     4     3                66.47090    0.33405
   15 Bend                     3     2     4                47.05821   -0.66810
   16 Torsion                  1     2     3     4           0.00000   -0.00000
   17 Torsion                  1     2     4     3          -0.00000    0.00000
   18 Torsion                  1     3     2     4          -0.00000    0.00000
   19 Torsion                  1     4     2     3           0.00000   -0.00000
   20 Torsion                  3     2     1     4        -180.00000   -0.00000
   21 Torsion                  3     1     2     4         180.00000    0.00000

 Restricting large step in mode    2 eval= 6.2D-02 step=-7.5D+00 new=-3.0D-01
 Restricting large step in mode    4 eval= 3.8D-01 step=-1.6D+00 new=-3.0D-01
 Restricting large step in mode    6 eval= 4.2D+00 step= 5.1D-01 new= 3.0D-01
  no constraints, skipping    0.0000000000000000     
  no constraints, skipping    0.0000000000000000     
  no constraints, skipping    0.0000000000000000     
  no constraints, skipping    0.0000000000000000     
  no constraints, skipping    0.0000000000000000     
  no constraints, skipping    0.0000000000000000     
  no constraints, skipping    0.0000000000000000     
  no constraints, skipping    0.0000000000000000     
                                 NWChem SCF Module
                                 -----------------


                             formaldehydeNotOptimized



  ao basis        = "ao basis"
  functions       =    38
  atoms           =     4
  closed shells   =     8
  open shells     =     0
  charge          =   0.00
  wavefunction    = RHF 
  input vectors   = ./molecule.movecs
  output vectors  = ./molecule.movecs
  use symmetry    = T
  symmetry adapt  = T


 Summary of "ao basis" -> "ao basis" (spherical)
 ------------------------------------------------------------------------------
       Tag                 Description            Shells   Functions and Types
 ---------------- ------------------------------  ------  ---------------------
 C                          cc-pVDZ                  6       14   3s2p1d
 O                          cc-pVDZ                  6       14   3s2p1d
 H                          cc-pVDZ                  3        5   2s1p


      Symmetry analysis of basis
      --------------------------

        a'         25
        a"         13


 Forming initial guess at       0.9s


 Loading old vectors from job with title :

formaldehydeNotOptimized


      Symmetry analysis of molecular orbitals - initial
      -------------------------------------------------

  Numbering of irreducible representations: 

     1 a'          2 a"      

  Orbital symmetries:

     1 a'          2 a'          3 a'          4 a"          5 a'      
     6 a'          7 a'          8 a"          9 a'         10 a'      
    11 a"         12 a'         13 a'         14 a"         15 a'      
    16 a'         17 a'         18 a"      


 Starting SCF solution at       0.9s



 ----------------------------------------------
         Quadratically convergent ROHF

 Convergence threshold     :          1.000E-04
 Maximum no. of iterations :           30
 Final Fock-matrix accuracy:          1.000E-07
 ----------------------------------------------

  avail0,avail1,avail0-avail1                308112               308112                    0
  avail0,avail1,avail0-avail1                308112               308112                    0
  avail0,avail1,avail0-avail1                308112               308128                  -16
  avail0,avail1,avail0-avail1                308112               308128                  -16

 #quartets = 9.609D+03 #integrals = 8.383D+04 #direct =  0.0% #cached =100.0%


 Integral file          = ./molecule.aoints.0
 Record size in doubles =  65536        No. of integs per rec  =  43688
 Max. records in memory =      4        Max. records in file   =   9146
 No. of bits per label  =      8        No. of bits per value  =     64


File balance: exchanges=     0  moved=     0  time=   0.0


              iter       energy          gnorm     gmax       time
             ----- ------------------- --------- --------- --------
                 1     -112.3638349890  6.24D-01  2.36D-01      0.9
                 2     -112.3809209508  1.04D-01  3.97D-02      0.9
                 3     -112.3816770501  5.22D-03  2.46D-03      1.0
                 4     -112.3816790409  6.72D-06  2.78D-06      1.0


       Final RHF  results 
       ------------------ 

         Total SCF energy =   -112.381679040885
      One-electron energy =   -234.029188723463
      Two-electron energy =     79.951118217931
 Nuclear repulsion energy =     41.696391464648

        Time for solution =      0.1s



       Symmetry analysis of molecular orbitals - final
       -----------------------------------------------

  Numbering of irreducible representations: 

     1 a'          2 a"      

  Orbital symmetries:

     1 a'          2 a'          3 a'          4 a"          5 a'      
     6 a'          7 a'          8 a"          9 a'         10 a'      
    11 a"         12 a'         13 a'         14 a'         15 a"      
    16 a'         17 a'         18 a"      

             Final eigenvalues
             -----------------

              1      
    1  -20.5592
    2  -11.3401
    3   -1.5180
    4   -0.9949
    5   -0.9585
    6   -0.6590
    7   -0.5813
    8   -0.4524
    9    0.1772
   10    0.2232
   11    0.2297
   12    0.3755
   13    0.6181
   14    0.8132
   15    0.8280
   16    0.9866
   17    1.0762
   18    1.2064

                       ROHF Final Molecular Orbital Analysis
                       -------------------------------------

 Vector    2  Occ=2.000000D+00  E=-1.134006D+01  Symmetry=a'
              MO Center=  8.4D-13,  4.6D-01, -6.5D-18, r^2= 2.8D-02
   Bfn.  Coefficient  Atom+Function         Bfn.  Coefficient  Atom+Function  
  ----- ------------  ---------------      ----- ------------  ---------------
     1      0.980409  1 C  s          

 Vector    3  Occ=2.000000D+00  E=-1.517990D+00  Symmetry=a'
              MO Center= -1.4D-12, -2.1D-01,  9.3D-17, r^2= 4.8D-01
   Bfn.  Coefficient  Atom+Function         Bfn.  Coefficient  Atom+Function  
  ----- ------------  ---------------      ----- ------------  ---------------
    16      0.369074  2 O  s                 17      0.319538  2 O  s          
     2      0.210287  1 C  s                  5     -0.198910  1 C  py         
    19      0.169344  2 O  py         

 Vector    4  Occ=2.000000D+00  E=-9.949246D-01  Symmetry=a"
              MO Center= -3.1D-12,  3.8D-01, -1.6D-17, r^2= 6.7D-01
   Bfn.  Coefficient  Atom+Function         Bfn.  Coefficient  Atom+Function  
  ----- ------------  ---------------      ----- ------------  ---------------
     6      0.561944  1 C  pz                30      0.492948  3 H  s          
    35     -0.492948  4 H  s                 29      0.381073  3 H  s          
    34     -0.381073  4 H  s                  9     -0.340031  1 C  pz         
    20      0.193110  2 O  pz         

 Vector    5  Occ=2.000000D+00  E=-9.585390D-01  Symmetry=a'
              MO Center= -6.3D-12,  3.5D-01,  2.2D-16, r^2= 1.0D+00
   Bfn.  Coefficient  Atom+Function         Bfn.  Coefficient  Atom+Function  
  ----- ------------  ---------------      ----- ------------  ---------------
    29      0.386530  3 H  s                 34      0.386530  4 H  s          
     5      0.263660  1 C  py                16     -0.252570  2 O  s          
    17     -0.237390  2 O  s                  3     -0.206030  1 C  s          
     2      0.201371  1 C  s          

 Vector    6  Occ=2.000000D+00  E=-6.589579D-01  Symmetry=a'
              MO Center= -1.4D-11, -4.6D-01,  1.8D-16, r^2= 9.3D-01
   Bfn.  Coefficient  Atom+Function         Bfn.  Coefficient  Atom+Function  
  ----- ------------  ---------------      ----- ------------  ---------------
    19      0.524444  2 O  py                 5     -0.430934  1 C  py         
    17     -0.337731  2 O  s                 22      0.276165  2 O  py         

 Vector    7  Occ=2.000000D+00  E=-5.813381D-01  Symmetry=a'
              MO Center=  2.7D-11, -2.0D-01,  3.0D-16, r^2= 8.8D-01
   Bfn.  Coefficient  Atom+Function         Bfn.  Coefficient  Atom+Function  
  ----- ------------  ---------------      ----- ------------  ---------------
    18      0.463562  2 O  px                 4      0.393683  1 C  px         
    21      0.300018  2 O  px                 7      0.184918  1 C  px         

 Vector    8  Occ=2.000000D+00  E=-4.524338D-01  Symmetry=a"
              MO Center=  1.0D-12, -4.6D-01, -1.9D-16, r^2= 7.8D-01
   Bfn.  Coefficient  Atom+Function         Bfn.  Coefficient  Atom+Function  
  ----- ------------  ---------------      ----- ------------  ---------------
    20      0.632340  2 O  pz                23      0.489758  2 O  pz         
     6     -0.234788  1 C  pz                29     -0.217885  3 H  s          
    34      0.217885  4 H  s                 30     -0.152300  3 H  s          
    35      0.152300  4 H  s          

 Vector    9  Occ=0.000000D+00  E= 1.772310D-01  Symmetry=a'
              MO Center= -1.1D-10,  2.0D-01, -9.9D-16, r^2= 1.6D+00
   Bfn.  Coefficient  Atom+Function         Bfn.  Coefficient  Atom+Function  
  ----- ------------  ---------------      ----- ------------  ---------------
     7      0.721791  1 C  px                21     -0.589995  2 O  px         
     4      0.405777  1 C  px                18     -0.397288  2 O  px         

 Vector   10  Occ=0.000000D+00  E= 2.231564D-01  Symmetry=a'
              MO Center=  1.3D-10,  8.9D-01, -3.9D-16, r^2= 4.1D+00
[...]


 center of mass
 --------------
 x =   0.00000016 y =  -0.63964654 z =   0.00000000

 moments of inertia (a.u.)
 ------------------
          51.167336728749          -0.000005371903           0.000000000000
          -0.000005371903           6.259518811003           0.000000000000
           0.000000000000           0.000000000000          44.907817917750

  Mulliken analysis of the total density
  --------------------------------------

    Atom       Charge   Shell Charges
 -----------   ------   -------------------------------------------------------
    1 C    6     5.76   2.00  0.69  0.41  1.88  0.62  0.15
    2 O    8     8.28   2.00  0.85  0.91  2.78  1.71  0.02
    3 H    1     0.98   0.77  0.18  0.03
    4 H    1     0.98   0.77  0.18  0.03

       Multipole analysis of the density wrt the origin
       ------------------------------------------------

     L   x y z        total         open         nuclear
     -   - - -        -----         ----         -------
     0   0 0 0     -0.000000      0.000000     16.000000

     1   1 0 0      0.000000      0.000000      0.000002
     1   0 1 0      1.010453      0.000000     -8.029626
     1   0 0 1     -0.000000      0.000000      0.000000

     2   2 0 0     -8.505569      0.000000      0.000000
     2   1 1 0     -0.000000      0.000000      0.000001
     2   1 0 1     -0.000000      0.000000      0.000000
     2   0 2 0     -9.842669      0.000000     31.094741
     2   0 1 1      0.000000      0.000000      0.000000
     2   0 0 2     -8.486633      0.000000      6.210918


 Parallel integral file used       5 records with       0 large values

 Line search: 
     step= 1.00 grad=-3.8D-08 hess= 1.8D-08 energy=   -113.877223 mode=accept  
 new step= 1.00                   predicted energy=   -113.877223
  no constraints, skipping    0.0000000000000000     
  no constraints, skipping    0.0000000000000000     
  no constraints, skipping    0.0000000000000000     

          --------
          Step   8
          --------


                         Geometry "geometry" -> "geometry"
                         ---------------------------------

 Output coordinates in angstroms (scale by  1.889725989 to convert to a.u.)

  No.       Tag          Charge          X              Y              Z
 ---- ---------------- ---------- -------------- -------------- --------------
    1 C                    6.0000     0.00000024     0.25211309     0.00000000
    2 O                    8.0000    -0.00000001    -0.92995152     0.00000000
    3 H                    1.0000    -0.00000012     0.83891922     0.93253272
    4 H                    1.0000    -0.00000012     0.83891922    -0.93253272

      Atomic Mass 
      ----------- 

      C                 12.000000
      O                 15.994910
      H                  1.007825


 Effective nuclear repulsion energy (a.u.)      31.7696113539

            Nuclear Dipole moment (a.u.) 
            ----------------------------
        X                 Y               Z
 ---------------- ---------------- ----------------
     0.0000022117    -8.0296257071     0.0000000000

      Symmetry information
      --------------------

 Group name             Cs        
 Group number              2
 Group order               2
 No. of unique centers     3

      Symmetry unique atoms

     1    2    3

                                 NWChem SCF Module
                                 -----------------


                             formaldehydeNotOptimized



  ao basis        = "ao basis"
  functions       =    38
  atoms           =     4
  closed shells   =     8
  open shells     =     0
  charge          =   0.00
  wavefunction    = RHF 
  input vectors   = ./molecule.movecs
  output vectors  = ./molecule.movecs
  use symmetry    = T
  symmetry adapt  = T


 Summary of "ao basis" -> "ao basis" (spherical)
 ------------------------------------------------------------------------------
       Tag                 Description            Shells   Functions and Types
 ---------------- ------------------------------  ------  ---------------------
 C                          cc-pVDZ                  6       14   3s2p1d
 O                          cc-pVDZ                  6       14   3s2p1d
 H                          cc-pVDZ                  3        5   2s1p


      Symmetry analysis of basis
      --------------------------

        a'         25
        a"         13


  The SCF is already converged 

         Total SCF energy =   -113.877222715134

                              NWChem Gradients Module
                              -----------------------


                             formaldehydeNotOptimized


  wavefunction    =   RHF     

  Using symmetry


                         RHF ENERGY GRADIENTS

    atom               coordinates                        gradient
                 x          y          z           x          y          z
   1 C       0.000000   0.476425   0.000000    0.000000  -0.000006   0.000000
   2 O      -0.000000  -1.757354   0.000000   -0.000000   0.000016   0.000000
   3 H      -0.000000   1.585327   1.762231   -0.000000  -0.000005   0.000009
   4 H      -0.000000   1.585327  -1.762231   -0.000000  -0.000005  -0.000009

                 ----------------------------------------
                 |  Time  |  1-e(secs)   |  2-e(secs)   |
                 ----------------------------------------
                 |  CPU   |       0.00   |       0.23   |
                 ----------------------------------------
                 |  WALL  |       0.00   |       0.23   |
                 ----------------------------------------
  no constraints, skipping    0.0000000000000000     

  Step       Energy      Delta E   Gmax     Grms     Xrms     Xmax   Walltime
  ---- ---------------- -------- -------- -------- -------- -------- --------
@    8    -113.87722272 -2.0D-08  0.00001  0.00000  0.00008  0.00018      3.4
                                     ok       ok       ok       ok  



                                Z-matrix (autoz)
                                -------- 

 Units are Angstrom for bonds and degrees for angles

      Type          Name      I     J     K     L     M      Value     Gradient
      ----------- --------  ----- ----- ----- ----- ----- ---------- ----------
    1 Stretch                  1     2                       1.18206   -0.00001
    2 Stretch                  1     3                       1.10180    0.00000
    3 Stretch                  1     4                       1.10180    0.00000
    4 Stretch                  2     3                       1.99963   -0.00000
    5 Stretch                  2     4                       1.99963   -0.00000
    6 Stretch                  3     4                       1.86507    0.00000
    7 Bend                     1     2     3                27.79779    0.00000
    8 Bend                     1     2     4                27.79779    0.00000
    9 Bend                     1     3     2                30.02161   -0.00000
   10 Bend                     1     4     2                30.02161   -0.00000
   11 Bend                     2     1     3               122.18059   -0.00000
   12 Bend                     2     1     4               122.18059   -0.00000
   13 Bend                     2     3     4                62.20221   -0.00000
   14 Bend                     2     4     3                62.20221   -0.00000
   15 Bend                     3     2     4                55.59559    0.00000
   16 Torsion                  1     2     3     4           0.00000    0.00000
   17 Torsion                  1     2     4     3          -0.00000   -0.00000
   18 Torsion                  1     3     2     4          -0.00000   -0.00000
   19 Torsion                  1     4     2     3           0.00000    0.00000
   20 Torsion                  3     2     1     4        -179.99994    0.00000
   21 Torsion                  3     1     2     4         179.99994   -0.00000


      ----------------------
      Optimization converged
      ----------------------


  Step       Energy      Delta E   Gmax     Grms     Xrms     Xmax   Walltime
  ---- ---------------- -------- -------- -------- -------- -------- --------
@    8    -113.87722272 -2.0D-08  0.00001  0.00000  0.00008  0.00018      3.4
                                     ok       ok       ok       ok  



                                Z-matrix (autoz)
                                -------- 

 Units are Angstrom for bonds and degrees for angles

      Type          Name      I     J     K     L     M      Value     Gradient
      ----------- --------  ----- ----- ----- ----- ----- ---------- ----------
    1 Stretch                  1     2                       1.18206   -0.00001
    2 Stretch                  1     3                       1.10180    0.00000
    3 Stretch                  1     4                       1.10180    0.00000
    4 Stretch                  2     3                       1.99963   -0.00000
    5 Stretch                  2     4                       1.99963   -0.00000
    6 Stretch                  3     4                       1.86507    0.00000
    7 Bend                     1     2     3                27.79779    0.00000
    8 Bend                     1     2     4                27.79779    0.00000
    9 Bend                     1     3     2                30.02161   -0.00000
   10 Bend                     1     4     2                30.02161   -0.00000
   11 Bend                     2     1     3               122.18059   -0.00000
   12 Bend                     2     1     4               122.18059   -0.00000
   13 Bend                     2     3     4                62.20221   -0.00000
   14 Bend                     2     4     3                62.20221   -0.00000
   15 Bend                     3     2     4                55.59559    0.00000
   16 Torsion                  1     2     3     4           0.00000    0.00000
   17 Torsion                  1     2     4     3          -0.00000   -0.00000
   18 Torsion                  1     3     2     4          -0.00000   -0.00000
   19 Torsion                  1     4     2     3           0.00000    0.00000
   20 Torsion                  3     2     1     4        -179.99994    0.00000
   21 Torsion                  3     1     2     4         179.99994   -0.00000



                         Geometry "geometry" -> "geometry"
                         ---------------------------------

 Output coordinates in angstroms (scale by  1.889725989 to convert to a.u.)

  No.       Tag          Charge          X              Y              Z
 ---- ---------------- ---------- -------------- -------------- --------------
    1 C                    6.0000     0.00000024     0.25211309     0.00000000
    2 O                    8.0000    -0.00000001    -0.92995152     0.00000000
    3 H                    1.0000    -0.00000012     0.83891922     0.93253272
    4 H                    1.0000    -0.00000012     0.83891922    -0.93253272

      Atomic Mass 
      ----------- 

      C                 12.000000
      O                 15.994910
      H                  1.007825


 Effective nuclear repulsion energy (a.u.)      31.7696113539

            Nuclear Dipole moment (a.u.) 
            ----------------------------
        X                 Y               Z
 ---------------- ---------------- ----------------
     0.0000022117    -8.0296257071     0.0000000000

      Symmetry information
      --------------------

 Group name             Cs        
 Group number              2
 Group order               2
 No. of unique centers     3

      Symmetry unique atoms

     1    2    3


                Final and change from initial internal coordinates
                --------------------------------------------------



                                Z-matrix (autoz)
                                -------- 

 Units are Angstrom for bonds and degrees for angles

      Type          Name      I     J     K     L     M      Value       Change
      ----------- --------  ----- ----- ----- ----- ----- ---------- ----------
    1 Stretch                  1     2                       1.18206    0.18206
    2 Stretch                  1     3                       1.10180    0.80180
    3 Stretch                  1     4                       1.10180    0.80180
    4 Stretch                  2     3                       1.99963    0.95560
    5 Stretch                  2     4                       1.99963    0.95560
    6 Stretch                  3     4                       1.86507    1.26507
    7 Bend                     1     2     3                27.79779   11.09855
    8 Bend                     1     2     4                27.79779   11.09855
    9 Bend                     1     3     2                30.02161  -43.27914
   10 Bend                     1     4     2                30.02161  -43.27914
   11 Bend                     2     1     3               122.18059   32.18059
   12 Bend                     2     1     4               122.18059   32.18059
   13 Bend                     2     3     4                62.20221  -11.09855
   14 Bend                     2     4     3                62.20221  -11.09855
   15 Bend                     3     2     4                55.59559   22.19710
   16 Torsion                  1     2     3     4           0.00000    0.00000
   17 Torsion                  1     2     4     3          -0.00000   -0.00000
   18 Torsion                  1     3     2     4          -0.00000   -0.00000
   19 Torsion                  1     4     2     3           0.00000    0.00000
   20 Torsion                  3     2     1     4        -179.99994    0.00006
   21 Torsion                  3     1     2     4         179.99994   -0.00006

 ==============================================================================
                                internuclear distances
 ------------------------------------------------------------------------------
       center one      |      center two      | atomic units |  angstroms
 ------------------------------------------------------------------------------
    2 O                |   1 C                |     2.23378  |     1.18206
    3 H                |   1 C                |     2.08210  |     1.10180
    4 H                |   1 C                |     2.08210  |     1.10180
 ------------------------------------------------------------------------------
                         number of included internuclear distances:          3
 ==============================================================================



 ==============================================================================
                                 internuclear angles
 ------------------------------------------------------------------------------
        center 1       |       center 2       |       center 3       |  degrees
 ------------------------------------------------------------------------------
    2 O                |   1 C                |   3 H                |   122.18
    2 O                |   1 C                |   4 H                |   122.18
    3 H                |   1 C                |   4 H                |   115.64
 ------------------------------------------------------------------------------
                            number of included internuclear angles:          3
 ==============================================================================




 Task  times  cpu:        3.3s     wall:        3.3s


                                NWChem Input Module
                                -------------------


 Summary of allocated global arrays
-----------------------------------
  No active global arrays


MA_summarize_allocated_blocks: starting scan ...
MA_summarize_allocated_blocks: scan completed: 0 heap blocks, 0 stack blocks
MA usage statistics:

	allocation statistics:
					      heap	     stack
					      ----	     -----
	current number of blocks	         0	         0
	maximum number of blocks	        20	        29
	current total bytes		         0	         0
	maximum total bytes		   2114064	  22509992
	maximum total K-bytes		      2115	     22510
	maximum total M-bytes		         3	        23


                                     CITATION
                                     --------
                Please cite the following reference when publishing
                           results obtained with NWChem:

          E. Apra, E. J. Bylaska, W. A. de Jong, N. Govind, K. Kowalski,
       T. P. Straatsma, M. Valiev, H. J. J. van Dam, Y. Alexeev, J. Anchell,
       V. Anisimov, F. W. Aquino, R. Atta-Fynn, J. Autschbach, N. P. Bauman,
     J. C. Becca, D. E. Bernholdt, K. Bhaskaran-Nair, S. Bogatko, P. Borowski,
         J. Boschen, J. Brabec, A. Bruner, E. Cauet, Y. Chen, G. N. Chuev,
      C. J. Cramer, J. Daily, M. J. O. Deegan, T. H. Dunning Jr., M. Dupuis,
   K. G. Dyall, G. I. Fann, S. A. Fischer, A. Fonari, H. Fruchtl, L. Gagliardi,
      J. Garza, N. Gawande, S. Ghosh, K. Glaesemann, A. W. Gotz, J. Hammond,
       V. Helms, E. D. Hermes, K. Hirao, S. Hirata, M. Jacquelin, L. Jensen,
   B. G. Johnson, H. Jonsson, R. A. Kendall, M. Klemm, R. Kobayashi, V. Konkov,
      S. Krishnamoorthy, M. Krishnan, Z. Lin, R. D. Lins, R. J. Littlefield,
      A. J. Logsdail, K. Lopata, W. Ma, A. V. Marenich, J. Martin del Campo,
   D. Mejia-Rodriguez, J. E. Moore, J. M. Mullin, T. Nakajima, D. R. Nascimento,
    J. A. Nichols, P. J. Nichols, J. Nieplocha, A. Otero-de-la-Roza, B. Palmer,
    A. Panyala, T. Pirojsirikul, B. Peng, R. Peverati, J. Pittner, L. Pollack,
   R. M. Richard, P. Sadayappan, G. C. Schatz, W. A. Shelton, D. W. Silverstein,
   D. M. A. Smith, T. A. Soares, D. Song, M. Swart, H. L. Taylor, G. S. Thomas,
            V. Tipparaju, D. G. Truhlar, K. Tsemekhman, T. Van Voorhis,
      A. Vazquez-Mayagoitia, P. Verma, O. Villa, A. Vishnu, K. D. Vogiatzis,
        D. Wang, J. H. Weare, M. J. Williamson, T. L. Windus, K. Wolinski,
        A. T. Wong, Q. Wu, C. Yang, Q. Yu, M. Zacharias, Z. Zhang, Y. Zhao,
                                and R. J. Harrison
                        "NWChem: Past, present, and future
                         J. Chem. Phys. 152, 184102 (2020)
                               doi:10.1063/5.0004997

                                      AUTHORS
                                      -------
  E. Apra, E. J. Bylaska, N. Govind, K. Kowalski, M. Valiev, D. Mejia-Rodriguez,
       A. Kunitsa, N. P. Bauman, A. Panyala, W. A. de Jong, T. P. Straatsma,
   H. J. J. van Dam, D. Wang, T. L. Windus, J. Hammond, J. Autschbach, A. Woods,
    K. Bhaskaran-Nair, J. Brabec, K. Lopata, S. A. Fischer, S. Krishnamoorthy,
     M. Jacquelin, W. Ma, M. Klemm, O. Villa, Y. Chen, V. Anisimov, F. Aquino,
     S. Hirata, M. T. Hackler, E. Hermes, L. Jensen, J. E. Moore, J. C. Becca,
      V. Konjkov, T. Risthaus, M. Malagoli, A. Marenich, A. Otero-de-la-Roza,
        J. Mullin, P. Nichols, R. Peverati, J. Pittner, Y. Zhao, P.-D. Fan,
        A. Fonari, M. J. Williamson, R. J. Harrison, J. R. Rehr, M. Dupuis,
     D. Silverstein, D. M. A. Smith, J. Nieplocha, V. Tipparaju, M. Krishnan,
     B. E. Van Kuiken, A. Vazquez-Mayagoitia, M. Swart, Q. Wu, T. Van Voorhis,
     A. A. Auer, M. Nooijen, L. D. Crosby, E. Brown, G. Cisneros, G. I. Fann,
   H. Fruchtl, J. Garza, K. Hirao, R. A. Kendall, J. A. Nichols, K. Tsemekhman,
    K. Wolinski, J. Anchell, D. E. Bernholdt, P. Borowski, T. Clark, D. Clerc,
   H. Dachsel, M. J. O. Deegan, K. Dyall, D. Elwood, E. Glendening, M. Gutowski,
   A. C. Hess, J. Jaffe, B. G. Johnson, J. Ju, R. Kobayashi, R. Kutteh, Z. Lin,
   R. Littlefield, X. Long, B. Meng, T. Nakajima, S. Niu, L. Pollack, M. Rosing,
   K. Glaesemann, G. Sandrone, M. Stave, H. Taylor, G. Thomas, J. H. van Lenthe,
                               A. T. Wong, Z. Zhang.

 Total times  cpu:        3.4s     wall:        3.4s
