 argument  1 = H2_3.1/H2_3.1.nw



============================== echo of input deck ==============================
echo

start molecule

title "H2"
charge 0

memory total 2 gb

geometry units angstrom noautoz
symmetry group d2h
H 0.00000 0.00000 3.1
end

basis spherical
 * library aug-cc-pVDZ
end

tce
 cisd
 maxiter 6000
end

task tce energy
================================================================================


                                         
                                         


             Northwest Computational Chemistry Package (NWChem) 7.2.2
             --------------------------------------------------------


                    Environmental Molecular Sciences Laboratory
                       Pacific Northwest National Laboratory
                                Richland, WA 99352

                              Copyright (c) 1994-2022
                       Pacific Northwest National Laboratory
                            Battelle Memorial Institute

             NWChem is an open-source computational chemistry package
                        distributed under the terms of the
                      Educational Community License (ECL) 2.0
             A copy of the license is included with this distribution
                              in the LICENSE.TXT file

                                  ACKNOWLEDGMENT
                                  --------------

            This software and its documentation were developed at the
            EMSL at Pacific Northwest National Laboratory, a multiprogram
            national laboratory, operated for the U.S. Department of Energy
            by Battelle under Contract Number DE-AC05-76RL01830. Support
            for this work was provided by the Department of Energy Office
            of Biological and Environmental Research, Office of Basic
            Energy Sciences, and the Office of Advanced Scientific Computing.


           Job information
           ---------------

    hostname        = Eliass-MacBook-Air.local
    program         = nwchem
    date            = Wed Feb 28 14:15:31 2024

    compiled        = Sun_Dec_10_10:51:21_2023
    source          = /private/tmp/nwchem-20231210-5888-3uvdjr/nwchem-7.2.2
    nwchem branch   = 7.2.2
    nwchem revision = 74936fb9
    ga revision     = 5.8.0
    use scalapack   = T
    input           = H2_3.1/H2_3.1.nw
    prefix          = molecule.
    data base       = ./molecule.db
    status          = startup
    nproc           =        4
    time left       =     -1s



           Memory information
           ------------------

    heap     =   67108860 doubles =    512.0 Mbytes
    stack    =   67108865 doubles =    512.0 Mbytes
    global   =  134217728 doubles =   1024.0 Mbytes (distinct from heap & stack)
    total    =  268435453 doubles =   2048.0 Mbytes
    verify   = yes
    hardfail = no 


           Directory information
           ---------------------

  0 permanent = .
  0 scratch   = .




                                NWChem Input Module
                                -------------------


                                        H2
                                        --

 Scaling coordinates for geometry "geometry" by  1.889725989
 (inverse scale =  0.529177249)



                             Geometry "geometry" -> ""
                             -------------------------

 Output coordinates in angstroms (scale by  1.889725989 to convert to a.u.)

  No.       Tag          Charge          X              Y              Z
 ---- ---------------- ---------- -------------- -------------- --------------
    1 H                    1.0000     0.00000000     0.00000000     3.10000000
    2 H                    1.0000     0.00000000     0.00000000    -3.10000000

      Atomic Mass 
      ----------- 

      H                  1.007825


 Effective nuclear repulsion energy (a.u.)       0.0853511692

            Nuclear Dipole moment (a.u.) 
            ----------------------------
        X                 Y               Z
 ---------------- ---------------- ----------------
     0.0000000000     0.0000000000     0.0000000000

      Symmetry information
      --------------------

 Group name             D2h       
 Group number             26
 Group order               8
 No. of unique centers     1

      Symmetry unique atoms

     1


            XYZ format geometry
            -------------------
     2
 geometry
 H                     0.00000000     0.00000000     3.10000000
 H                     0.00000000     0.00000000    -3.10000000

  library name resolved from: .nwchemrc
  library file name is: </opt/homebrew/Cellar/nwchem/7.2.2/share/nwchem/libraries/>
  


 Summary of "ao basis" -> "" (spherical)
 ------------------------------------------------------------------------------
       Tag                 Description            Shells   Functions and Types
 ---------------- ------------------------------  ------  ---------------------
 *                        aug-cc-pVDZ                 on all atoms 


                      Basis "ao basis" -> "ao basis" (spherical)
                      -----
  H (Hydrogen)
  ------------
            Exponent  Coefficients 
       -------------- ---------------------------------------------------------
  1 S  1.30100000E+01  0.019685
  1 S  1.96200000E+00  0.137977
  1 S  4.44600000E-01  0.478148

  2 S  1.22000000E-01  1.000000

  3 S  2.97400000E-02  1.000000

  4 P  7.27000000E-01  1.000000

  5 P  1.41000000E-01  1.000000



 Summary of "ao basis" -> "ao basis" (spherical)
 ------------------------------------------------------------------------------
       Tag                 Description            Shells   Functions and Types
 ---------------- ------------------------------  ------  ---------------------
 H                        aug-cc-pVDZ                5        9   3s2p


                                 NWChem SCF Module
                                 -----------------


                                        H2



  ao basis        = "ao basis"
  functions       =    18
  atoms           =     2
  closed shells   =     1
  open shells     =     0
  charge          =   0.00
  wavefunction    = RHF 
  input vectors   = atomic
  output vectors  = ./molecule.movecs
  use symmetry    = T
  symmetry adapt  = T


 Summary of "ao basis" -> "ao basis" (spherical)
 ------------------------------------------------------------------------------
       Tag                 Description            Shells   Functions and Types
 ---------------- ------------------------------  ------  ---------------------
 H                        aug-cc-pVDZ                5        9   3s2p


      Symmetry analysis of basis
      --------------------------

        ag          5
        au          0
        b1g         0
        b1u         5
        b2g         2
        b2u         2
        b3g         2
        b3u         2


 Forming initial guess at       0.0s


      Superposition of Atomic Density Guess
      -------------------------------------

 Sum of atomic energies:          -0.99866926

      Non-variational initial energy
      ------------------------------

 Total energy =      -0.687057
 1-e energy   =      -1.169371
 2-e energy   =       0.396963
 HOMO         =      -0.200132
 LUMO         =      -0.199512


 !!!!!!!!!!!!!!!!!!!!!!!!!!!!!!!!!!!!!!!!!!!!!!!!!!!!!!!!!!!!!!!!!!!!!!
 Warning - the HOMO and LUMO are degenerate and you are using symmetry.
 This can lead to non-variational energies and poor convergence.
 Modify the initial guess, or use an open-shell wavefunction, or turn
 off symmetry.
 !!!!!!!!!!!!!!!!!!!!!!!!!!!!!!!!!!!!!!!!!!!!!!!!!!!!!!!!!!!!!!!!!!!!!!


      Symmetry analysis of molecular orbitals - initial
      -------------------------------------------------


 !! scf_movecs_sym_adapt:    8 vectors were symmetry contaminated

  Symmetry fudging

 !! scf_movecs_sym_adapt:    6 vectors were symmetry contaminated

  Numbering of irreducible representations: 

     1 ag          2 au          3 b1g         4 b1u         5 b2g     
     6 b2u         7 b3g         8 b3u     

  Orbital symmetries:

     1 ag          2 b1u         3 ag          4 b1u         5 ag      
     6 b3u         7 b2u         8 b3g         9 b2g        10 b1u     
    11 ag      


 Starting SCF solution at       0.0s



 ----------------------------------------------
         Quadratically convergent ROHF

 Convergence threshold     :          1.000E-04
 Maximum no. of iterations :           30
 Final Fock-matrix accuracy:          1.000E-07
 ----------------------------------------------


 #quartets = 8.230D+02 #integrals = 1.850D+03 #direct =  0.0% #cached =100.0%


 Integral file          = ./molecule.aoints.0
 Record size in doubles =  65536        No. of integs per rec  =  43688
 Max. records in memory =      3        Max. records in file   = 159223
 No. of bits per label  =      8        No. of bits per value  =     64


File balance: exchanges=     0  moved=     0  time=   0.0


              iter       energy          gnorm     gmax       time
             ----- ------------------- --------- --------- --------
                 1       -0.7572485366  3.47D-02  2.63D-02      0.0
                 2       -0.7577157010  4.92D-04  3.61D-04      0.0
                 3       -0.7577157922  2.51D-06  2.02D-06      0.0


       Final RHF  results 
       ------------------ 

         Total SCF energy =     -0.757715792188
      One-electron energy =     -1.141483472192
      Two-electron energy =      0.298416510811
 Nuclear repulsion energy =      0.085351169193

        Time for solution =      0.0s



       Symmetry analysis of molecular orbitals - final
       -----------------------------------------------

  Numbering of irreducible representations: 

     1 ag          2 au          3 b1g         4 b1u         5 b2g     
     6 b2u         7 b3g         8 b3u     

  Orbital symmetries:

     1 ag          2 b1u         3 ag          4 b1u         5 ag      
     6 b3u         7 b2u         8 b3g         9 b2g        10 b1u     
    11 ag      

             Final eigenvalues
             -----------------

              1      
    1   -0.2723
    2   -0.1860
    3    0.0754
    4    0.0974
    5    0.2840
    6    0.2849
    7    0.2849
    8    0.2859
    9    0.2859
   10    0.2895
   11    0.7380

                       ROHF Final Molecular Orbital Analysis
                       -------------------------------------

 Vector    1  Occ=2.000000D+00  E=-2.723252D-01  Symmetry=ag
              MO Center=  0.0D+00,  0.0D+00, -3.7D-17, r^2= 1.1D+01
   Bfn.  Coefficient  Atom+Function         Bfn.  Coefficient  Atom+Function  
  ----- ------------  ---------------      ----- ------------  ---------------
     2      0.371539  1 H  s                 11      0.371539  2 H  s          
     1      0.316023  1 H  s                 10      0.316023  2 H  s          

 Vector    2  Occ=0.000000D+00  E=-1.859663D-01  Symmetry=b1u
              MO Center=  0.0D+00,  0.0D+00, -3.0D-16, r^2= 1.1D+01
   Bfn.  Coefficient  Atom+Function         Bfn.  Coefficient  Atom+Function  
  ----- ------------  ---------------      ----- ------------  ---------------
     2      0.370039  1 H  s                 11     -0.370039  2 H  s          
     1      0.318021  1 H  s                 10     -0.318021  2 H  s          

 Vector    3  Occ=0.000000D+00  E= 7.536798D-02  Symmetry=ag
              MO Center=  0.0D+00,  0.0D+00,  4.1D-17, r^2= 1.7D+01
   Bfn.  Coefficient  Atom+Function         Bfn.  Coefficient  Atom+Function  
  ----- ------------  ---------------      ----- ------------  ---------------
     3      0.875467  1 H  s                 12      0.875467  2 H  s          
     2     -0.550813  1 H  s                 11     -0.550813  2 H  s          

 Vector    4  Occ=0.000000D+00  E= 9.735804D-02  Symmetry=b1u
              MO Center=  0.0D+00,  0.0D+00,  1.6D-16, r^2= 2.2D+01
   Bfn.  Coefficient  Atom+Function         Bfn.  Coefficient  Atom+Function  
  ----- ------------  ---------------      ----- ------------  ---------------
     3      1.050561  1 H  s                 12     -1.050561  2 H  s          
     2     -0.609068  1 H  s                 11      0.609068  2 H  s          

 Vector    5  Occ=0.000000D+00  E= 2.839820D-01  Symmetry=ag
              MO Center= -6.8D-17, -4.7D-17, -5.1D-16, r^2= 1.3D+01
   Bfn.  Coefficient  Atom+Function         Bfn.  Coefficient  Atom+Function  
  ----- ------------  ---------------      ----- ------------  ---------------
     9      0.715052  1 H  pz                18     -0.715052  2 H  pz         

 Vector    6  Occ=0.000000D+00  E= 2.848522D-01  Symmetry=b3u
              MO Center=  6.8D-17, -2.9D-47,  2.5D-17, r^2= 1.2D+01
   Bfn.  Coefficient  Atom+Function         Bfn.  Coefficient  Atom+Function  
  ----- ------------  ---------------      ----- ------------  ---------------
     7      0.715307  1 H  px                16      0.715307  2 H  px         

 Vector    7  Occ=0.000000D+00  E= 2.848522D-01  Symmetry=b2u
              MO Center= -8.8D-50,  4.7D-17,  2.5D-17, r^2= 1.2D+01
   Bfn.  Coefficient  Atom+Function         Bfn.  Coefficient  Atom+Function  
  ----- ------------  ---------------      ----- ------------  ---------------
     8      0.715307  1 H  py                17      0.715307  2 H  py         

 Vector    8  Occ=0.000000D+00  E= 2.859046D-01  Symmetry=b3g
              MO Center=  1.5D-50,  1.7D-22,  9.4D-17, r^2= 1.2D+01
   Bfn.  Coefficient  Atom+Function         Bfn.  Coefficient  Atom+Function  
  ----- ------------  ---------------      ----- ------------  ---------------
     8      0.715353  1 H  py                17     -0.715353  2 H  py         

 Vector    9  Occ=0.000000D+00  E= 2.859046D-01  Symmetry=b2g
              MO Center= -7.1D-22, -8.6D-51,  9.4D-17, r^2= 1.2D+01
   Bfn.  Coefficient  Atom+Function         Bfn.  Coefficient  Atom+Function  
  ----- ------------  ---------------      ----- ------------  ---------------
     7      0.715353  1 H  px                16     -0.715353  2 H  px         

 Vector   10  Occ=0.000000D+00  E= 2.895155D-01  Symmetry=b1u
              MO Center=  6.0D-22, -1.4D-22,  2.4D-15, r^2= 1.2D+01
   Bfn.  Coefficient  Atom+Function         Bfn.  Coefficient  Atom+Function  
  ----- ------------  ---------------      ----- ------------  ---------------
     9      0.715313  1 H  pz                18      0.715313  2 H  pz         

 Vector   11  Occ=0.000000D+00  E= 7.379994D-01  Symmetry=ag
              MO Center=  6.4D-21,  6.3D-21,  9.3D-17, r^2= 1.2D+01
   Bfn.  Coefficient  Atom+Function         Bfn.  Coefficient  Atom+Function  
  ----- ------------  ---------------      ----- ------------  ---------------
     2      1.193838  1 H  s                 11      1.193838  2 H  s          
     1     -0.976852  1 H  s                 10     -0.976852  2 H  s          
     3     -0.421353  1 H  s                 12     -0.421353  2 H  s          


 center of mass
 --------------
 x =   0.00000000 y =   0.00000000 z =   0.00000000

 moments of inertia (a.u.)
 ------------------
          69.172931648787           0.000000000000           0.000000000000
           0.000000000000          69.172931648787           0.000000000000
           0.000000000000           0.000000000000           0.000000000000

  Mulliken analysis of the total density
  --------------------------------------

    Atom       Charge   Shell Charges
 -----------   ------   -------------------------------------------------------
    1 H    1     1.00   0.38  0.50  0.12 -0.00  0.00
    2 H    1     1.00   0.38  0.50  0.12 -0.00  0.00

       Multipole analysis of the density wrt the origin
       ------------------------------------------------

     L   x y z        total         open         nuclear
     -   - - -        -----         ----         -------
     0   0 0 0     -0.000000      0.000000      2.000000

     1   1 0 0      0.000000      0.000000      0.000000
     1   0 1 0      0.000000      0.000000      0.000000
     1   0 0 1      0.000000      0.000000      0.000000

     2   2 0 0     -3.258577      0.000000      0.000000
     2   1 1 0      0.000000      0.000000      0.000000
     2   1 0 1      0.000000      0.000000      0.000000
     2   0 2 0     -3.258577      0.000000      0.000000
     2   0 1 1      0.000000      0.000000      0.000000
     2   0 0 2     -2.252947      0.000000     68.635856


 Parallel integral file used       4 records with       0 large values

                   NWChem Extensible Many-Electron Theory Module
                   ---------------------------------------------

              ======================================================
                   This portion of the program was automatically
                  generated by a Tensor Contraction Engine (TCE).
                  The development of this portion of the program
                 and TCE was supported by US Department of Energy,
                Office of Science, Office of Basic Energy Science.
                      TCE is a product of Battelle and PNNL.
              Please cite: S.Hirata, J.Phys.Chem.A 107, 9887 (2003).
              ======================================================

                                        H2


            General Information
            -------------------
      Number of processors :     4
         Wavefunction type : Restricted Hartree-Fock
          No. of electrons :     2
           Alpha electrons :     1
            Beta electrons :     1
           No. of orbitals :    36
            Alpha orbitals :    18
             Beta orbitals :    18
        Alpha frozen cores :     0
         Beta frozen cores :     0
     Alpha frozen virtuals :     0
      Beta frozen virtuals :     0
         Spin multiplicity : singlet 
    Number of AO functions :    18
       Number of AO shells :    10
        Use of symmetry is : on 
      Symmetry adaption is : on 
         Schwarz screening : 0.10D-09

          Correlation Information
          -----------------------
          Calculation type : Configuration interaction singles & doubles                 
   Perturbative correction : none                                                        
            Max iterations :     6000
        Residual threshold : 0.10D-06
     T(0) DIIS level shift : 0.00D+00
     L(0) DIIS level shift : 0.00D+00
     T(1) DIIS level shift : 0.00D+00
     L(1) DIIS level shift : 0.00D+00
     T(R) DIIS level shift : 0.00D+00
     T(I) DIIS level shift : 0.00D+00
   CC-T/L Amplitude update :  5-th order DIIS
                I/O scheme : Global Array Library
        L-threshold :  0.10D-06
        EOM-threshold :  0.10D-06
 no EOMCCSD initial starts read in
 TCE RESTART OPTIONS
 READ_INT:   F
 WRITE_INT:  F
 READ_TA:    F
 WRITE_TA:   F
 READ_XA:    F
 WRITE_XA:   F
 READ_IN3:   F
 WRITE_IN3:  F
 SLICE:      F
 D4D5:       F
 quantumc:   F
 qrotation:  F
 pwtce:      F
 qducc:      F
 nacto:                         0
 nrotv:                         0
 nrot:                          0

            Memory Information
            ------------------
          Available GA space size is     536870588 doubles
          Available MA space size is     134216828 doubles

 Maximum block size        32 doubles

 tile_dim =      5

 Block   Spin    Irrep     Size     Offset   Alpha
 -------------------------------------------------
   1    alpha     ag     1 doubles       0       1
   2    beta      ag     1 doubles       1       1
   3    alpha     ag     4 doubles       2       3
   4    alpha     b1u    5 doubles       6       4
   5    alpha     b2g    2 doubles      11       5
   6    alpha     b2u    2 doubles      13       6
   7    alpha     b3g    2 doubles      15       7
   8    alpha     b3u    2 doubles      17       8
   9    beta      ag     4 doubles      19       3
  10    beta      b1u    5 doubles      23       4
  11    beta      b2g    2 doubles      28       5
  12    beta      b2u    2 doubles      30       6
  13    beta      b3g    2 doubles      32       7
  14    beta      b3u    2 doubles      34       8

 Global array virtual files algorithm will be used

 Parallel file system coherency ......... OK
  avail0,avail1,avail0-avail1                335193               335193                    0
  avail0,avail1,avail0-avail1                335193               335193                    0
  avail0,avail1,avail0-avail1                335193               335208                  -15
  avail0,avail1,avail0-avail1                335193               335208                  -15

 #quartets = 1.290D+03 #integrals = 3.322D+03 #direct =  0.0% #cached =100.0%


 Integral file          = ./molecule.aoints.0
 Record size in doubles =  65536        No. of integs per rec  =  43688
 Max. records in memory =      3        Max. records in file   =   9949
 No. of bits per label  =      8        No. of bits per value  =     64


File balance: exchanges=     0  moved=     0  time=   0.0


 Fock matrix recomputed
 1-e file size   =               66
 1-e file name   = ./molecule.f1
 Cpu & wall time / sec            0.0            0.0

 tce_ao2e: fast2e=1
 half-transformed integrals in memory

 2-e (intermediate) file size =          228744
 2-e (intermediate) file name = ./molecule.v2i
 Cpu & wall time / sec            0.0            0.0

 tce_mo2e: fast2e=1
 2-e integrals stored in memory

 2-e file size   =            22285
 2-e file name   = ./molecule.v2
 Cpu & wall time / sec            0.0            0.0
 T1-number-of-tasks                    1

 t1 file size   =                4
 t1 file name   = ./molecule.t1
 t1 file handle =       -999
 T2-number-of-boxes                   12

 t2 file size   =              114
 t2 file name   = ./molecule.t2
 t2 file handle =       -996

 CISD iterations
 --------------------------------------------------------
 Iter          Residuum       Correlation     Cpu    Wall
 --------------------------------------------------------
    1   0.3069737174601  -0.2972840954381     0.0     0.0
    2   0.3618967518470  -0.0621770834766     0.0     0.0
    3   0.5621201118319  -0.4009243326548     0.0     0.0
    4   0.5452511706668   0.2012458941090     0.0     0.0
    5   0.2508030800685   0.0271228953304     0.0     0.0
 MICROCYCLE DIIS UPDATE:                    5                    5
    6   0.1505712878510  -0.1536358349509     0.0     0.0
    7   0.3095137666859  -0.3409808845887     0.0     0.0
    8   0.4026159834401   0.0016987741092     0.0     0.0
    9   0.4679775158977  -0.3596386984174     0.0     0.0
   10   0.4793402197609   0.0653472974946     0.0     0.0
 MICROCYCLE DIIS UPDATE:                   10                    5
   11   0.1500222631261  -0.1549045366039     0.0     0.0
   12   0.3146010638508  -0.3428422506147     0.0     0.0
   13   0.4064472125105   0.0059935749449     0.0     0.0
   14   0.4609115154914  -0.3559150035401     0.0     0.0
   15   0.4730387374679   0.0542936450268     0.0     0.0
 MICROCYCLE DIIS UPDATE:                   15                    5
   16   0.1081924942406  -0.1829990178840     0.0     0.0
   17   0.2276242622949  -0.3185382781544     0.0     0.0
   18   0.3320659290750  -0.0640431740887     0.0     0.0
   19   0.5238687379476  -0.3918331961570     0.0     0.0
   20   0.5206119231413   0.1654782909576     0.0     0.0
 MICROCYCLE DIIS UPDATE:                   20                    5
   21   0.0721949631263  -0.2042210910933     0.0     0.0
   22   0.1504495305553  -0.2945971197028     0.0     0.0
   23   0.2417794607674  -0.1260692617266     0.0     0.0
   24   0.4459783411683  -0.3785188974357     0.0     0.0
   25   0.4829837999359   0.1177776778742     0.0     0.0
 MICROCYCLE DIIS UPDATE:                   25                    5
   26   0.0456270075852  -0.2185109191142     0.0     0.0
   27   0.0938890021970  -0.2756015790267     0.0     0.0
   28   0.1603941470909  -0.1705321333785     0.0     0.0
   29   0.3088500396269  -0.3427017843199     0.0     0.0
   30   0.4046623143302   0.0039568515957     0.0     0.0
 MICROCYCLE DIIS UPDATE:                   30                    5
   31   0.0283177677010  -0.2273084774534     0.0     0.0
   32   0.0576711759157  -0.2627326789290     0.0     0.0
   33   0.1019322176616  -0.1982943126097     0.0     0.0
   34   0.1961336348466  -0.3091852157223     0.0     0.0
   35   0.2992132750657  -0.0894477243332     0.0     0.0
 MICROCYCLE DIIS UPDATE:                   35                    5
   36   0.0180451902966  -0.2323654236790     0.0     0.0
   37   0.0365207435415  -0.2549381261480     0.0     0.0
   38   0.0657122629229  -0.2141859613780     0.0     0.0
   39   0.1251793150860  -0.2861405006667     0.0     0.0
   40   0.2071800142574  -0.1464122580480     0.0     0.0
 MICROCYCLE DIIS UPDATE:                   40                    5
   41   0.0093644945655  -0.2365427308124     0.0     0.0
   42   0.0188467017870  -0.2482570275844     0.0     0.0
   43   0.0343791298676  -0.2272544820026     0.0     0.0
   44   0.0646037656859  -0.2650800606240     0.0     0.0
   45   0.1133272476248  -0.1933051156444     0.0     0.0
 MICROCYCLE DIIS UPDATE:                   45                    5
   46   0.0030516834356  -0.2395271998005     0.0     0.0
   47   0.0061144329334  -0.2433448868402     0.0     0.0
   48   0.0112567198033  -0.2365381750202     0.0     0.0
   49   0.0208854905815  -0.2489619259695     0.0     0.0
   50   0.0379276698426  -0.2258595319845     0.0     0.0
 MICROCYCLE DIIS UPDATE:                   50                    5
   51   0.0003922068736  -0.2407721951467     0.0     0.0
   52   0.0007839899994  -0.2412629119393     0.0     0.0
   53   0.0014490071801  -0.2403905012186     0.0     0.0
   54   0.0026722070574  -0.2419916589856     0.0     0.0
   55   0.0049134616737  -0.2390420313662     0.0     0.0
 MICROCYCLE DIIS UPDATE:                   55                    5
   56   0.0000073530121  -0.2409520551646     0.0     0.0
   57   0.0000145320077  -0.2409611964033     0.0     0.0
   58   0.0000269458354  -0.2409450163561     0.0     0.0
   59   0.0000496357201  -0.2409747899082     0.0     0.0
   60   0.0000914298032  -0.2409200199274     0.0     0.0
 MICROCYCLE DIIS UPDATE:                   60                    5
   61   0.0000000278967  -0.2409555162020     0.0     0.0
 --------------------------------------------------------
 Iterations converged
 CISD correlation energy / hartree =        -0.240955516201953
 CISD total energy / hartree       =        -0.998671308389522

 Singles contributions
     3ag  (alpha) ---     1ag  (alpha)       -0.1625224747

 Doubles contributions
     2b1u (alpha)     2b1u (beta ) ---     1ag  (alpha)     1ag  (beta )       -1.0020665419
     2b1u (alpha)     4b1u (beta ) ---     1ag  (alpha)     1ag  (beta )        0.1541487075
     4b1u (alpha)     2b1u (beta ) ---     1ag  (alpha)     1ag  (beta )        0.1541487075

 Parallel integral file used       4 records with       0 large values


 Task  times  cpu:        0.2s     wall:        0.2s


                                NWChem Input Module
                                -------------------


 Summary of allocated global arrays
-----------------------------------
  No active global arrays


MA_summarize_allocated_blocks: starting scan ...
MA_summarize_allocated_blocks: scan completed: 0 heap blocks, 0 stack blocks
MA usage statistics:

	allocation statistics:
					      heap	     stack
					      ----	     -----
	current number of blocks	         0	         0
	maximum number of blocks	        18	        25
	current total bytes		         0	         0
	maximum total bytes		   1579328	  22509416
	maximum total K-bytes		      1580	     22510
	maximum total M-bytes		         2	        23


                                     CITATION
                                     --------
                Please cite the following reference when publishing
                           results obtained with NWChem:

          E. Apra, E. J. Bylaska, W. A. de Jong, N. Govind, K. Kowalski,
       T. P. Straatsma, M. Valiev, H. J. J. van Dam, Y. Alexeev, J. Anchell,
       V. Anisimov, F. W. Aquino, R. Atta-Fynn, J. Autschbach, N. P. Bauman,
     J. C. Becca, D. E. Bernholdt, K. Bhaskaran-Nair, S. Bogatko, P. Borowski,
         J. Boschen, J. Brabec, A. Bruner, E. Cauet, Y. Chen, G. N. Chuev,
      C. J. Cramer, J. Daily, M. J. O. Deegan, T. H. Dunning Jr., M. Dupuis,
   K. G. Dyall, G. I. Fann, S. A. Fischer, A. Fonari, H. Fruchtl, L. Gagliardi,
      J. Garza, N. Gawande, S. Ghosh, K. Glaesemann, A. W. Gotz, J. Hammond,
       V. Helms, E. D. Hermes, K. Hirao, S. Hirata, M. Jacquelin, L. Jensen,
   B. G. Johnson, H. Jonsson, R. A. Kendall, M. Klemm, R. Kobayashi, V. Konkov,
      S. Krishnamoorthy, M. Krishnan, Z. Lin, R. D. Lins, R. J. Littlefield,
      A. J. Logsdail, K. Lopata, W. Ma, A. V. Marenich, J. Martin del Campo,
   D. Mejia-Rodriguez, J. E. Moore, J. M. Mullin, T. Nakajima, D. R. Nascimento,
    J. A. Nichols, P. J. Nichols, J. Nieplocha, A. Otero-de-la-Roza, B. Palmer,
    A. Panyala, T. Pirojsirikul, B. Peng, R. Peverati, J. Pittner, L. Pollack,
   R. M. Richard, P. Sadayappan, G. C. Schatz, W. A. Shelton, D. W. Silverstein,
   D. M. A. Smith, T. A. Soares, D. Song, M. Swart, H. L. Taylor, G. S. Thomas,
            V. Tipparaju, D. G. Truhlar, K. Tsemekhman, T. Van Voorhis,
      A. Vazquez-Mayagoitia, P. Verma, O. Villa, A. Vishnu, K. D. Vogiatzis,
        D. Wang, J. H. Weare, M. J. Williamson, T. L. Windus, K. Wolinski,
        A. T. Wong, Q. Wu, C. Yang, Q. Yu, M. Zacharias, Z. Zhang, Y. Zhao,
                                and R. J. Harrison
                        "NWChem: Past, present, and future
                         J. Chem. Phys. 152, 184102 (2020)
                               doi:10.1063/5.0004997

                                      AUTHORS
                                      -------
  E. Apra, E. J. Bylaska, N. Govind, K. Kowalski, M. Valiev, D. Mejia-Rodriguez,
       A. Kunitsa, N. P. Bauman, A. Panyala, W. A. de Jong, T. P. Straatsma,
   H. J. J. van Dam, D. Wang, T. L. Windus, J. Hammond, J. Autschbach, A. Woods,
    K. Bhaskaran-Nair, J. Brabec, K. Lopata, S. A. Fischer, S. Krishnamoorthy,
     M. Jacquelin, W. Ma, M. Klemm, O. Villa, Y. Chen, V. Anisimov, F. Aquino,
     S. Hirata, M. T. Hackler, E. Hermes, L. Jensen, J. E. Moore, J. C. Becca,
      V. Konjkov, T. Risthaus, M. Malagoli, A. Marenich, A. Otero-de-la-Roza,
        J. Mullin, P. Nichols, R. Peverati, J. Pittner, Y. Zhao, P.-D. Fan,
        A. Fonari, M. J. Williamson, R. J. Harrison, J. R. Rehr, M. Dupuis,
     D. Silverstein, D. M. A. Smith, J. Nieplocha, V. Tipparaju, M. Krishnan,
     B. E. Van Kuiken, A. Vazquez-Mayagoitia, M. Swart, Q. Wu, T. Van Voorhis,
     A. A. Auer, M. Nooijen, L. D. Crosby, E. Brown, G. Cisneros, G. I. Fann,
   H. Fruchtl, J. Garza, K. Hirao, R. A. Kendall, J. A. Nichols, K. Tsemekhman,
    K. Wolinski, J. Anchell, D. E. Bernholdt, P. Borowski, T. Clark, D. Clerc,
   H. Dachsel, M. J. O. Deegan, K. Dyall, D. Elwood, E. Glendening, M. Gutowski,
   A. C. Hess, J. Jaffe, B. G. Johnson, J. Ju, R. Kobayashi, R. Kutteh, Z. Lin,
   R. Littlefield, X. Long, B. Meng, T. Nakajima, S. Niu, L. Pollack, M. Rosing,
   K. Glaesemann, G. Sandrone, M. Stave, H. Taylor, G. Thomas, J. H. van Lenthe,
                               A. T. Wong, Z. Zhang.

 Total times  cpu:        0.3s     wall:        0.3s
