 argument  1 = H2_3.85/H2_3.85.nw



============================== echo of input deck ==============================
echo

start molecule

title "H2"
charge 0

memory total 2 gb

geometry units angstrom noautoz
symmetry group d2h
H 0.00000 0.00000 3.85
end

basis spherical
 * library aug-cc-pVDZ
end

tce
 cisd
 maxiter 6000
end

task tce energy
================================================================================


                                         
                                         


             Northwest Computational Chemistry Package (NWChem) 7.2.2
             --------------------------------------------------------


                    Environmental Molecular Sciences Laboratory
                       Pacific Northwest National Laboratory
                                Richland, WA 99352

                              Copyright (c) 1994-2022
                       Pacific Northwest National Laboratory
                            Battelle Memorial Institute

             NWChem is an open-source computational chemistry package
                        distributed under the terms of the
                      Educational Community License (ECL) 2.0
             A copy of the license is included with this distribution
                              in the LICENSE.TXT file

                                  ACKNOWLEDGMENT
                                  --------------

            This software and its documentation were developed at the
            EMSL at Pacific Northwest National Laboratory, a multiprogram
            national laboratory, operated for the U.S. Department of Energy
            by Battelle under Contract Number DE-AC05-76RL01830. Support
            for this work was provided by the Department of Energy Office
            of Biological and Environmental Research, Office of Basic
            Energy Sciences, and the Office of Advanced Scientific Computing.


           Job information
           ---------------

    hostname        = Eliass-MacBook-Air.local
    program         = nwchem
    date            = Wed Feb 28 14:15:33 2024

    compiled        = Sun_Dec_10_10:51:21_2023
    source          = /private/tmp/nwchem-20231210-5888-3uvdjr/nwchem-7.2.2
    nwchem branch   = 7.2.2
    nwchem revision = 74936fb9
    ga revision     = 5.8.0
    use scalapack   = T
    input           = H2_3.85/H2_3.85.nw
    prefix          = molecule.
    data base       = ./molecule.db
    status          = startup
    nproc           =        4
    time left       =     -1s



           Memory information
           ------------------

    heap     =   67108860 doubles =    512.0 Mbytes
    stack    =   67108865 doubles =    512.0 Mbytes
    global   =  134217728 doubles =   1024.0 Mbytes (distinct from heap & stack)
    total    =  268435453 doubles =   2048.0 Mbytes
    verify   = yes
    hardfail = no 


           Directory information
           ---------------------

  0 permanent = .
  0 scratch   = .




                                NWChem Input Module
                                -------------------


                                        H2
                                        --

 Scaling coordinates for geometry "geometry" by  1.889725989
 (inverse scale =  0.529177249)



                             Geometry "geometry" -> ""
                             -------------------------

 Output coordinates in angstroms (scale by  1.889725989 to convert to a.u.)

  No.       Tag          Charge          X              Y              Z
 ---- ---------------- ---------- -------------- -------------- --------------
    1 H                    1.0000     0.00000000     0.00000000     3.85000000
    2 H                    1.0000     0.00000000     0.00000000    -3.85000000

      Atomic Mass 
      ----------- 

      H                  1.007825


 Effective nuclear repulsion energy (a.u.)       0.0687243181

            Nuclear Dipole moment (a.u.) 
            ----------------------------
        X                 Y               Z
 ---------------- ---------------- ----------------
     0.0000000000     0.0000000000     0.0000000000

      Symmetry information
      --------------------

 Group name             D2h       
 Group number             26
 Group order               8
 No. of unique centers     1

      Symmetry unique atoms

     1


            XYZ format geometry
            -------------------
     2
 geometry
 H                     0.00000000     0.00000000     3.85000000
 H                     0.00000000     0.00000000    -3.85000000

  library name resolved from: .nwchemrc
  library file name is: </opt/homebrew/Cellar/nwchem/7.2.2/share/nwchem/libraries/>
  


 Summary of "ao basis" -> "" (spherical)
 ------------------------------------------------------------------------------
       Tag                 Description            Shells   Functions and Types
 ---------------- ------------------------------  ------  ---------------------
 *                        aug-cc-pVDZ                 on all atoms 


                      Basis "ao basis" -> "ao basis" (spherical)
                      -----
  H (Hydrogen)
  ------------
            Exponent  Coefficients 
       -------------- ---------------------------------------------------------
  1 S  1.30100000E+01  0.019685
  1 S  1.96200000E+00  0.137977
  1 S  4.44600000E-01  0.478148

  2 S  1.22000000E-01  1.000000

  3 S  2.97400000E-02  1.000000

  4 P  7.27000000E-01  1.000000

  5 P  1.41000000E-01  1.000000



 Summary of "ao basis" -> "ao basis" (spherical)
 ------------------------------------------------------------------------------
       Tag                 Description            Shells   Functions and Types
 ---------------- ------------------------------  ------  ---------------------
 H                        aug-cc-pVDZ                5        9   3s2p


                                 NWChem SCF Module
                                 -----------------


                                        H2



  ao basis        = "ao basis"
  functions       =    18
  atoms           =     2
  closed shells   =     1
  open shells     =     0
  charge          =   0.00
  wavefunction    = RHF 
  input vectors   = atomic
  output vectors  = ./molecule.movecs
  use symmetry    = T
  symmetry adapt  = T


 Summary of "ao basis" -> "ao basis" (spherical)
 ------------------------------------------------------------------------------
       Tag                 Description            Shells   Functions and Types
 ---------------- ------------------------------  ------  ---------------------
 H                        aug-cc-pVDZ                5        9   3s2p


      Symmetry analysis of basis
      --------------------------

        ag          5
        au          0
        b1g         0
        b1u         5
        b2g         2
        b2u         2
        b3g         2
        b3u         2


 Forming initial guess at       0.0s


      Superposition of Atomic Density Guess
      -------------------------------------

 Sum of atomic energies:          -0.99866926

      Non-variational initial energy
      ------------------------------

 Total energy =      -0.687057
 1-e energy   =      -1.136117
 2-e energy   =       0.380336
 HOMO         =      -0.199855
 LUMO         =      -0.199784


 !!!!!!!!!!!!!!!!!!!!!!!!!!!!!!!!!!!!!!!!!!!!!!!!!!!!!!!!!!!!!!!!!!!!!!
 Warning - the HOMO and LUMO are degenerate and you are using symmetry.
 This can lead to non-variational energies and poor convergence.
 Modify the initial guess, or use an open-shell wavefunction, or turn
 off symmetry.
 !!!!!!!!!!!!!!!!!!!!!!!!!!!!!!!!!!!!!!!!!!!!!!!!!!!!!!!!!!!!!!!!!!!!!!


      Symmetry analysis of molecular orbitals - initial
      -------------------------------------------------


 !! scf_movecs_sym_adapt:    8 vectors were symmetry contaminated

  Symmetry fudging

 !! scf_movecs_sym_adapt:    8 vectors were symmetry contaminated

  Numbering of irreducible representations: 

     1 ag          2 au          3 b1g         4 b1u         5 b2g     
     6 b2u         7 b3g         8 b3u     

  Orbital symmetries:

     1 ag          2 b1u         3 ag          4 b1u         5 b3u     
     6 b2u         7 b2g         8 b3g         9 ag         10 b1u     
    11 ag      


 Starting SCF solution at       0.0s



 ----------------------------------------------
         Quadratically convergent ROHF

 Convergence threshold     :          1.000E-04
 Maximum no. of iterations :           30
 Final Fock-matrix accuracy:          1.000E-07
 ----------------------------------------------


 #quartets = 6.030D+02 #integrals = 1.478D+03 #direct =  0.0% #cached =100.0%


 Integral file          = ./molecule.aoints.0
 Record size in doubles =  65536        No. of integs per rec  =  43688
 Max. records in memory =      3        Max. records in file   = 159221
 No. of bits per label  =      8        No. of bits per value  =     64


File balance: exchanges=     0  moved=     0  time=   0.0


              iter       energy          gnorm     gmax       time
             ----- ------------------- --------- --------- --------
                 1       -0.7482843931  3.13D-02  2.43D-02      0.0
                 2       -0.7486532277  3.84D-04  3.27D-04      0.0
                 3       -0.7486532909  1.31D-06  1.13D-06      0.0


       Final RHF  results 
       ------------------ 

         Total SCF energy =     -0.748653290908
      One-electron energy =     -1.108361969028
      Two-electron energy =      0.290984360067
 Nuclear repulsion energy =      0.068724318052

        Time for solution =      0.0s



       Symmetry analysis of molecular orbitals - final
       -----------------------------------------------

  Numbering of irreducible representations: 

     1 ag          2 au          3 b1g         4 b1u         5 b2g     
     6 b2u         7 b3g         8 b3u     

  Orbital symmetries:

     1 ag          2 b1u         3 ag          4 b1u         5 ag      
     6 b2u         7 b3u         8 b3g         9 b2g        10 b1u     
    11 ag      

             Final eigenvalues
             -----------------

              1      
    1   -0.2632
    2   -0.1943
    3    0.0772
    4    0.0922
    5    0.2852
    6    0.2854
    7    0.2854
    8    0.2859
    9    0.2859
   10    0.2863
   11    0.7358

                       ROHF Final Molecular Orbital Analysis
                       -------------------------------------

 Vector    1  Occ=2.000000D+00  E=-2.631966D-01  Symmetry=ag
              MO Center=  4.4D-16,  5.1D-17,  1.6D-12, r^2= 1.6D+01
   Bfn.  Coefficient  Atom+Function         Bfn.  Coefficient  Atom+Function  
  ----- ------------  ---------------      ----- ------------  ---------------
     2      0.373187  1 H  s                 11      0.373187  2 H  s          
     1      0.316447  1 H  s                 10      0.316447  2 H  s          

 Vector    2  Occ=0.000000D+00  E=-1.942591D-01  Symmetry=b1u
              MO Center= -8.5D-31, -7.4D-30, -1.6D-12, r^2= 1.6D+01
   Bfn.  Coefficient  Atom+Function         Bfn.  Coefficient  Atom+Function  
  ----- ------------  ---------------      ----- ------------  ---------------
     2      0.371469  1 H  s                 11     -0.371469  2 H  s          
     1      0.317146  1 H  s                 10     -0.317146  2 H  s          

 Vector    3  Occ=0.000000D+00  E= 7.724553D-02  Symmetry=ag
              MO Center= -1.6D-32, -2.7D-33, -5.0D-16, r^2= 2.3D+01
   Bfn.  Coefficient  Atom+Function         Bfn.  Coefficient  Atom+Function  
  ----- ------------  ---------------      ----- ------------  ---------------
     3      0.923111  1 H  s                 12      0.923111  2 H  s          
     2     -0.566154  1 H  s                 11     -0.566154  2 H  s          

 Vector    4  Occ=0.000000D+00  E= 9.220786D-02  Symmetry=b1u
              MO Center=  3.2D-33, -3.9D-31, -5.2D-16, r^2= 2.6D+01
   Bfn.  Coefficient  Atom+Function         Bfn.  Coefficient  Atom+Function  
  ----- ------------  ---------------      ----- ------------  ---------------
     3      0.987083  1 H  s                 12     -0.987083  2 H  s          
     2     -0.588093  1 H  s                 11      0.588093  2 H  s          

 Vector    5  Occ=0.000000D+00  E= 2.852365D-01  Symmetry=ag
              MO Center= -2.6D-35, -3.9D-36, -4.7D-16, r^2= 1.8D+01
   Bfn.  Coefficient  Atom+Function         Bfn.  Coefficient  Atom+Function  
  ----- ------------  ---------------      ----- ------------  ---------------
     9      0.715318  1 H  pz                18     -0.715318  2 H  pz         

 Vector    6  Occ=0.000000D+00  E= 2.854387D-01  Symmetry=b2u
              MO Center=  7.8D-49, -5.3D-17, -4.7D-17, r^2= 1.7D+01
   Bfn.  Coefficient  Atom+Function         Bfn.  Coefficient  Atom+Function  
  ----- ------------  ---------------      ----- ------------  ---------------
     8      0.715376  1 H  py                17      0.715376  2 H  py         

 Vector    7  Occ=0.000000D+00  E= 2.854387D-01  Symmetry=b3u
              MO Center= -4.3D-16, -3.0D-49,  1.2D-15, r^2= 1.7D+01
   Bfn.  Coefficient  Atom+Function         Bfn.  Coefficient  Atom+Function  
  ----- ------------  ---------------      ----- ------------  ---------------
     7      0.715376  1 H  px                16      0.715376  2 H  px         

 Vector    8  Occ=0.000000D+00  E= 2.858954D-01  Symmetry=b3g
              MO Center=  1.7D-52,  4.9D-22,  1.3D-16, r^2= 1.7D+01
   Bfn.  Coefficient  Atom+Function         Bfn.  Coefficient  Atom+Function  
  ----- ------------  ---------------      ----- ------------  ---------------
     8      0.715387  1 H  py                17     -0.715387  2 H  py         

 Vector    9  Occ=0.000000D+00  E= 2.858954D-01  Symmetry=b2g
              MO Center=  2.5D-21, -2.3D-53, -1.2D-15, r^2= 1.7D+01
   Bfn.  Coefficient  Atom+Function         Bfn.  Coefficient  Atom+Function  
  ----- ------------  ---------------      ----- ------------  ---------------
     7      0.715387  1 H  px                16     -0.715387  2 H  px         

 Vector   10  Occ=0.000000D+00  E= 2.863056D-01  Symmetry=b1u
              MO Center=  1.8D-22,  3.4D-23,  2.9D-15, r^2= 1.7D+01
   Bfn.  Coefficient  Atom+Function         Bfn.  Coefficient  Atom+Function  
  ----- ------------  ---------------      ----- ------------  ---------------
     9      0.715326  1 H  pz                18      0.715326  2 H  pz         

 Vector   11  Occ=0.000000D+00  E= 7.358067D-01  Symmetry=ag
              MO Center= -1.3D-18, -2.6D-33,  7.5D-16, r^2= 1.7D+01
   Bfn.  Coefficient  Atom+Function         Bfn.  Coefficient  Atom+Function  
  ----- ------------  ---------------      ----- ------------  ---------------
     2      1.196522  1 H  s                 11      1.196522  2 H  s          
     1     -0.977442  1 H  s                 10     -0.977442  2 H  s          
     3     -0.437038  1 H  s                 12     -0.437038  2 H  s          


 center of mass
 --------------
 x =   0.00000000 y =   0.00000000 z =   0.00000000

 moments of inertia (a.u.)
 ------------------
         106.692588903657           0.000000000000           0.000000000000
           0.000000000000         106.692588903657           0.000000000000
           0.000000000000           0.000000000000           0.000000000000

  Mulliken analysis of the total density
  --------------------------------------

    Atom       Charge   Shell Charges
 -----------   ------   -------------------------------------------------------
    1 H    1     1.00   0.38  0.50  0.11 -0.00  0.00
    2 H    1     1.00   0.38  0.50  0.11 -0.00  0.00

       Multipole analysis of the density wrt the origin
       ------------------------------------------------

     L   x y z        total         open         nuclear
     -   - - -        -----         ----         -------
     0   0 0 0     -0.000000      0.000000      2.000000

     1   1 0 0     -0.000000      0.000000      0.000000
     1   0 1 0     -0.000000      0.000000      0.000000
     1   0 0 1     -0.000000      0.000000      0.000000

     2   2 0 0     -3.223093      0.000000      0.000000
     2   1 1 0     -0.000000      0.000000      0.000000
     2   1 0 1     -0.000000      0.000000      0.000000
     2   0 2 0     -3.223093      0.000000      0.000000
     2   0 1 1     -0.000000      0.000000      0.000000
     2   0 0 2     -2.581405      0.000000    105.864202


 Parallel integral file used       4 records with       0 large values

                   NWChem Extensible Many-Electron Theory Module
                   ---------------------------------------------

              ======================================================
                   This portion of the program was automatically
                  generated by a Tensor Contraction Engine (TCE).
                  The development of this portion of the program
                 and TCE was supported by US Department of Energy,
                Office of Science, Office of Basic Energy Science.
                      TCE is a product of Battelle and PNNL.
              Please cite: S.Hirata, J.Phys.Chem.A 107, 9887 (2003).
              ======================================================

                                        H2


            General Information
            -------------------
      Number of processors :     4
         Wavefunction type : Restricted Hartree-Fock
          No. of electrons :     2
           Alpha electrons :     1
            Beta electrons :     1
           No. of orbitals :    36
            Alpha orbitals :    18
             Beta orbitals :    18
        Alpha frozen cores :     0
         Beta frozen cores :     0
     Alpha frozen virtuals :     0
      Beta frozen virtuals :     0
         Spin multiplicity : singlet 
    Number of AO functions :    18
       Number of AO shells :    10
        Use of symmetry is : on 
      Symmetry adaption is : on 
         Schwarz screening : 0.10D-09

          Correlation Information
          -----------------------
          Calculation type : Configuration interaction singles & doubles                 
   Perturbative correction : none                                                        
            Max iterations :     6000
        Residual threshold : 0.10D-06
     T(0) DIIS level shift : 0.00D+00
     L(0) DIIS level shift : 0.00D+00
     T(1) DIIS level shift : 0.00D+00
     L(1) DIIS level shift : 0.00D+00
     T(R) DIIS level shift : 0.00D+00
     T(I) DIIS level shift : 0.00D+00
   CC-T/L Amplitude update :  5-th order DIIS
                I/O scheme : Global Array Library
        L-threshold :  0.10D-06
        EOM-threshold :  0.10D-06
 no EOMCCSD initial starts read in
 TCE RESTART OPTIONS
 READ_INT:   F
 WRITE_INT:  F
 READ_TA:    F
 WRITE_TA:   F
 READ_XA:    F
 WRITE_XA:   F
 READ_IN3:   F
 WRITE_IN3:  F
 SLICE:      F
 D4D5:       F
 quantumc:   F
 qrotation:  F
 pwtce:      F
 qducc:      F
 nacto:                         0
 nrotv:                         0
 nrot:                          0

            Memory Information
            ------------------
          Available GA space size is     536870588 doubles
          Available MA space size is     134216828 doubles

 Maximum block size        32 doubles

 tile_dim =      5

 Block   Spin    Irrep     Size     Offset   Alpha
 -------------------------------------------------
   1    alpha     ag     1 doubles       0       1
   2    beta      ag     1 doubles       1       1
   3    alpha     ag     4 doubles       2       3
   4    alpha     b1u    5 doubles       6       4
   5    alpha     b2g    2 doubles      11       5
   6    alpha     b2u    2 doubles      13       6
   7    alpha     b3g    2 doubles      15       7
   8    alpha     b3u    2 doubles      17       8
   9    beta      ag     4 doubles      19       3
  10    beta      b1u    5 doubles      23       4
  11    beta      b2g    2 doubles      28       5
  12    beta      b2u    2 doubles      30       6
  13    beta      b3g    2 doubles      32       7
  14    beta      b3u    2 doubles      34       8

 Global array virtual files algorithm will be used

 Parallel file system coherency ......... OK
  avail0,avail1,avail0-avail1                335192               335192                    0
  avail0,avail1,avail0-avail1                335192               335192                    0
  avail0,avail1,avail0-avail1                335192               335207                  -15
  avail0,avail1,avail0-avail1                335192               335207                  -15

 #quartets = 1.161D+03 #integrals = 2.384D+03 #direct =  0.0% #cached =100.0%


 Integral file          = ./molecule.aoints.0
 Record size in doubles =  65536        No. of integs per rec  =  43688
 Max. records in memory =      3        Max. records in file   =   9949
 No. of bits per label  =      8        No. of bits per value  =     64


File balance: exchanges=     0  moved=     0  time=   0.0


 Fock matrix recomputed
 1-e file size   =               66
 1-e file name   = ./molecule.f1
 Cpu & wall time / sec            0.0            0.0

 tce_ao2e: fast2e=1
 half-transformed integrals in memory

 2-e (intermediate) file size =          228744
 2-e (intermediate) file name = ./molecule.v2i
 Cpu & wall time / sec            0.0            0.0

 tce_mo2e: fast2e=1
 2-e integrals stored in memory

 2-e file size   =            22285
 2-e file name   = ./molecule.v2
 Cpu & wall time / sec            0.0            0.0
 T1-number-of-tasks                    1

 t1 file size   =                4
 t1 file name   = ./molecule.t1
 t1 file handle =       -999
 T2-number-of-boxes                   12

 t2 file size   =              114
 t2 file name   = ./molecule.t2
 t2 file handle =       -996

 CISD iterations
 --------------------------------------------------------
 Iter          Residuum       Correlation     Cpu    Wall
 --------------------------------------------------------
    1   0.5407812550982  -0.3931909406322     0.0     0.0
    2   0.6626835042100   0.3309327569224     0.0     0.0
    3   1.5852690124767   0.5810684703498     0.0     0.0
    4  41.6839998037204   2.9646416061096     0.0     0.0
    5******************  69.0933571925741     0.0     0.0
 MICROCYCLE DIIS UPDATE:                    5                    5
    6   0.2177219816004   0.0642574580565     0.0     0.0
    7   0.3244051686111  -0.2694227692602     0.0     0.0
    8   0.2329712218356  -0.1563955518818     0.0     0.0
    9   0.6329835392470  -0.4429422123342     0.0     0.0
   10   1.1752227297196   0.5135894088217     0.0     0.0
 MICROCYCLE DIIS UPDATE:                   10                    5
   11   0.2350301493955  -0.0405602098247     0.0     0.0
   12   0.6002780922615  -0.4223545427257     0.0     0.0
   13   0.8311683913932   0.4111901501178     0.0     0.0
   14   5.5832800958338   1.0853712286428     0.0     0.0
   15 443.9591621788202   9.8149017461464     0.0     0.0
 MICROCYCLE DIIS UPDATE:                   15                    5
   16   0.2270921286754  -0.0668289538777     0.0     0.0
   17   0.6324591093041  -0.4358379006933     0.0     0.0
   18   1.0370503690911   0.4771845573919     0.0     0.0
   19  11.5848024813784   1.5687952756842     0.0     0.0
   201805.7643932499623  19.8738787828934     0.0     0.0
 MICROCYCLE DIIS UPDATE:                   20                    5
   21   0.2168556633178  -0.0884191471177     0.0     0.0
   22   0.6395807889897  -0.4407233946175     0.0     0.0
   23   1.1271858763765   0.5015784918256     0.0     0.0
   24  14.6707170094832   1.7674733950361     0.0     0.0
   252853.3212144187132  25.0045698171984     0.0     0.0
 MICROCYCLE DIIS UPDATE:                   25                    5
   26   0.2057291067711  -0.1054082993123     0.0     0.0
   27   0.6269337581550  -0.4394206984413     0.0     0.0
   28   1.0994122669391   0.4942116466430     0.0     0.0
   29  13.8196634327875   1.7142197799306     0.0     0.0
   302540.3411661940358  23.5858131936160     0.0     0.0
 MICROCYCLE DIIS UPDATE:                   30                    5
   31   0.1952863516163  -0.1186297206092     0.0     0.0
   32   0.6066276056095  -0.4355062082098     0.0     0.0
   33   1.0235265335635   0.4734670902391     0.0     0.0
   34  11.4318281933199   1.5567114203431     0.0     0.0
   351758.7938842143890  19.6075838183312     0.0     0.0
 MICROCYCLE DIIS UPDATE:                   35                    5
   36   0.1856647363363  -0.1293589233986     0.0     0.0
   37   0.5836731469555  -0.4305082123468     0.0     0.0
   38   0.9348662224517   0.4474663943253     0.0     0.0
   39   8.8332163318370   1.3657633439707     0.0     0.0
   401068.8684219769411  15.2648689790375     0.0     0.0
 MICROCYCLE DIIS UPDATE:                   40                    5
   41   0.1766484565050  -0.1384895869233     0.0     0.0
   42   0.5596390914374  -0.4249540248465     0.0     0.0
   43   0.8466619869182   0.4190601794379     0.0     0.0
   44   6.4766274869176   1.1670830401827     0.0     0.0
   45 588.8100197681862  11.3081669224877     0.0     0.0
 MICROCYCLE DIIS UPDATE:                   45                    5
   46   0.1680076759005  -0.1465772884209     0.0     0.0
   47   0.5349125555866  -0.4190069405000     0.0     0.0
   48   0.7639900543957   0.3891730930324     0.0     0.0
   49   4.4875811635813   0.9697711317904     0.0     0.0
   50 292.4075908078551   7.9470523781623     0.0     0.0
 MICROCYCLE DIIS UPDATE:                   50                    5
   51   0.1595359573855  -0.1539887801973     0.0     0.0
   52   0.5094452047838  -0.4126858017353     0.0     0.0
   53   0.6890928109539   0.3579857111451     0.0     0.0
   54   2.8823782367805   0.7769465324711     0.0     0.0
   55 126.7577067937791   5.2103471638056     0.0     0.0
 MICROCYCLE DIIS UPDATE:                   55                    5
   56   0.1509915699287  -0.1610271012536     0.0     0.0
   57   0.4828263466912  -0.4058945456859     0.0     0.0
   58   0.6228706147834   0.3251318431864     0.0     0.0
   59   1.6368032619657   0.5884082956709     0.0     0.0
   60  44.3198370969464   3.0588577930177     0.0     0.0
 MICROCYCLE DIIS UPDATE:                   60                    5
   61   0.1419771191699  -0.1680494022629     0.0     0.0
   62   0.4540027126326  -0.3983455080787     0.0     0.0
   63   0.5652850884525   0.2893970093794     0.0     0.0
   64   0.7155520482228   0.4004396021662     0.0     0.0
   65   9.9702030735356   1.4306573209560     0.0     0.0
 MICROCYCLE DIIS UPDATE:                   65                    5
   66   0.1313445475258  -0.1758861872880     0.0     0.0
   67   0.4194035879084  -0.3890257102030     0.0     0.0
   68   0.5143497852192   0.2464157235256     0.0     0.0
   69   0.1343582782868   0.1980513102056     0.0     0.0
   70   0.2383565088451   0.2553275534912     0.0     0.0
 MICROCYCLE DIIS UPDATE:                   70                    5
   71   0.1017011889941  -0.1957713377660     0.0     0.0
   72   0.3215813562667  -0.3611245606368     0.0     0.0
   73   0.4422165430334   0.1252215904984     0.0     0.0
   74   0.3417254247485  -0.2327232052470     0.0     0.0
   75   0.0921149698228  -0.2448654603075     0.0     0.0
 MICROCYCLE DIIS UPDATE:                   75                    5
   76   0.1337038523083  -0.1746264338833     0.0     0.0
   77   0.4294874444769  -0.3918037046066     0.0     0.0
   78   0.5275008224399   0.2589225560755     0.0     0.0
   79   0.2340742208028   0.2540109687650     0.0     0.0
   80   1.3259255853126   0.5202138185590     0.0     0.0
 MICROCYCLE DIIS UPDATE:                   80                    5
   81   0.1090626959479  -0.1912024982590     0.0     0.0
   82   0.3463983806414  -0.3684408124601     0.0     0.0
   83   0.4547796769155   0.1558098925338     0.0     0.0
   84   0.3221025887756  -0.1435914229179     0.0     0.0
   85   0.3461541001270  -0.3656198769785     0.0     0.0
 MICROCYCLE DIIS UPDATE:                   85                    5
   86   0.1244416192842  -0.1809065078645     0.0     0.0
   87   0.3967699288876  -0.3828206875959     0.0     0.0
   88   0.4902045129853   0.2182915327607     0.0     0.0
   89   0.2022432630408   0.0797032674543     0.0     0.0
   90   0.2777386494651  -0.1538658945271     0.0     0.0
 MICROCYCLE DIIS UPDATE:                   90                    5
   91   0.1295375077418  -0.1771729986762     0.0     0.0
   92   0.4115766221309  -0.3869508363189     0.0     0.0
   93   0.5049962202505   0.2367092881965     0.0     0.0
   94   0.1267208114953   0.1562707416883     0.0     0.0
   95   0.1482312650261   0.0875554958922     0.0     0.0
 MICROCYCLE DIIS UPDATE:                   95                    5
   96   0.1152630091036  -0.1868692305006     0.0     0.0
   97   0.3639454405819  -0.3735798945412     0.0     0.0
   98   0.4645675289600   0.1776614369165     0.0     0.0
   99   0.3081308425632  -0.0712945965993     0.0     0.0
  100   0.4241704991193  -0.3772478243741     0.0     0.0
 MICROCYCLE DIIS UPDATE:                  100                    5
  101   0.1114786430744  -0.1893780967280     0.0     0.0
  102   0.3515970707052  -0.3700447567513     0.0     0.0
  103   0.4571039617360   0.1624274345071     0.0     0.0
  104   0.3190747920406  -0.1220034023564     0.0     0.0
  105   0.3927504173442  -0.3770505480338     0.0     0.0
 MICROCYCLE DIIS UPDATE:                  105                    5
  106   0.1060354243560  -0.1928833202469     0.0     0.0
  107   0.3334871089241  -0.3647775787427     0.0     0.0
  108   0.4474424801995   0.1400893783445     0.0     0.0
  109   0.3284153755368  -0.1904664391912     0.0     0.0
  110   0.1860766348204  -0.3166118324633     0.0     0.0
 MICROCYCLE DIIS UPDATE:                  110                    5
  111   0.1060992600502  -0.1928878879224     0.0     0.0
  112   0.3341949586745  -0.3649746889123     0.0     0.0
  113   0.4478818554166   0.1409328561187     0.0     0.0
  114   0.3280017651985  -0.1880859827681     0.0     0.0
  115   0.1954321368876  -0.3198936839917     0.0     0.0
 MICROCYCLE DIIS UPDATE:                  115                    5
  116   0.0990724420252  -0.1972690863883     0.0     0.0
  117   0.3104791535703  -0.3579620675315     0.0     0.0
  118   0.4362876663800   0.1117768398103     0.0     0.0
  119   0.3626116434401  -0.2671576171806     0.0     0.0
  120   0.2259723894959  -0.1666006711186     0.0     0.0
 MICROCYCLE DIIS UPDATE:                  120                    5
  121   0.0826569654072  -0.2070849905219     0.0     0.0
  122   0.2555458151954  -0.3411768983651     0.0     0.0
  123   0.4067783498915   0.0447709376219     0.0     0.0
  124   0.5921098281452  -0.4033635585317     0.0     0.0
  125   0.6438554399133   0.3157063739251     0.0     0.0
 MICROCYCLE DIIS UPDATE:                  125                    5
  126   0.0545521928159  -0.2227161015526     0.0     0.0
  127   0.1630019451578  -0.3110426436830     0.0     0.0
  128   0.3202611971746  -0.0657520337698     0.0     0.0
  129   0.8419133394711  -0.4892899247184     0.0     0.0
  130   2.5013047495159   0.7663864942768     0.0     0.0
 MICROCYCLE DIIS UPDATE:                  130                    5
  131   0.0485443546216  -0.2258786782337     0.0     0.0
  132   0.1441477735405  -0.3044993044107     0.0     0.0
  133   0.2946961485543  -0.0879197590728     0.0     0.0
  134   0.8194981413482  -0.4858982294947     0.0     0.0
  135   2.3829784133428   0.7473219455366     0.0     0.0
 MICROCYCLE DIIS UPDATE:                  135                    5
  136   0.0497811225080  -0.2252512648507     0.0     0.0
  137   0.1484969631864  -0.3059848097842     0.0     0.0
  138   0.3008962013908  -0.0828855464527     0.0     0.0
  139   0.8274008153021  -0.4873533016901     0.0     0.0
  140   2.4351404323452   0.7556560654756     0.0     0.0
 MICROCYCLE DIIS UPDATE:                  140                    5
  141   0.0815282593431  -0.2076914647174     0.0     0.0
  142   0.2515155094214  -0.3398930085672     0.0     0.0
  143   0.4042049421793   0.0398705299402     0.0     0.0
  144   0.6118485443091  -0.4108634745653     0.0     0.0
  145   0.7020415445076   0.3503660143039     0.0     0.0
 MICROCYCLE DIIS UPDATE:                  145                    5
  146   0.0521857479083  -0.2239734577843     0.0     0.0
  147   0.1552795382485  -0.3084153746249     0.0     0.0
  148   0.3100975794756  -0.0748010838539     0.0     0.0
  149   0.8358143115915  -0.4886645107015     0.0     0.0
  150   2.4813962636749   0.7630603073017     0.0     0.0
 MICROCYCLE DIIS UPDATE:                  150                    5
  151   0.0387815318122  -0.2309538191165     0.0     0.0
  152   0.1137354435740  -0.2937585773452     0.0     0.0
  153   0.2469677073387  -0.1232007632097     0.0     0.0
  154   0.7260559731692  -0.4660419571010     0.0     0.0
  155   1.7362419386645   0.6348497295870     0.0     0.0
 MICROCYCLE DIIS UPDATE:                  155                    5
  156   0.0395038876096  -0.2677778776531     0.0     0.0
  157   0.1018069192526  -0.2042776398255     0.0     0.0
  158   0.2961029254144  -0.3534697777069     0.0     0.0
  159   0.4308175338266   0.0931887282755     0.0     0.0
  160   0.4125228059985  -0.3126693127110     0.0     0.0
 MICROCYCLE DIIS UPDATE:                  160                    5
  161   0.0394006122022  -0.2677794396912     0.0     0.0
  162   0.1033389404947  -0.2037686629817     0.0     0.0
  163   0.3004096843290  -0.3547251220875     0.0     0.0
  164   0.4331595079423   0.0983499755770     0.0     0.0
  165   0.3976542268200  -0.3011057373247     0.0     0.0
 MICROCYCLE DIIS UPDATE:                  165                    5
  166   0.0440146249937  -0.2697804170345     0.0     0.0
  167   0.1142707637621  -0.1983262373796     0.0     0.0
  168   0.3347658776380  -0.3649863599188     0.0     0.0
  169   0.4500881686484   0.1406808243250     0.0     0.0
  170   0.3294350425620  -0.1905797353626     0.0     0.0
 MICROCYCLE DIIS UPDATE:                  170                    5
  171   0.0730241694361  -0.2819519058387     0.0     0.0
  172   0.1794011391041  -0.1634265458464     0.0     0.0
  173   0.5394828410994  -0.4211403010423     0.0     0.0
  174   0.7879892756011   0.3980785563979     0.0     0.0
  175   5.0229016427466   1.0263957741222     0.0     0.0
 MICROCYCLE DIIS UPDATE:                  175                    5
  176   0.0890397877569  -0.2884295046904     0.0     0.0
  177   0.2117468755556  -0.1439165848834     0.0     0.0
  178   0.6355767045926  -0.4450007773876     0.0     0.0
  179   1.2030253351790   0.5203995609900     0.0     0.0
  180  17.5167099031374   1.9323890399358     0.0     0.0
 MICROCYCLE DIIS UPDATE:                  180                    5
  181   0.1080253101964  -0.2959057879961     0.0     0.0
  182   0.2466655147703  -0.1205943200265     0.0     0.0
  183   0.7275396146303  -0.4664044494574     0.0     0.0
  184   1.7446310093444   0.6364437474002     0.0     0.0
  185  41.3320984009540   2.9856133173922     0.0     0.0
 MICROCYCLE DIIS UPDATE:                  185                    5
  186   0.1290119073871  -0.3039362366843     0.0     0.0
  187   0.2809645760341  -0.0945826660378     0.0     0.0
  188   0.7964446191140  -0.4811390367183     0.0     0.0
  189   2.2115822411228   0.7194234412131     0.0     0.0
  190  68.3687510698115   3.8513556146122     0.0     0.0
 MICROCYCLE DIIS UPDATE:                  190                    5
  191   0.1540519500145  -0.3132244146601     0.0     0.0
  192   0.3160576746127  -0.0632574705992     0.0     0.0
  193   0.8285846337522  -0.4860834401333     0.0     0.0
  194   2.3765197247483   0.7469342778905     0.0     0.0
  195  79.2274822071478   4.1501939513054     0.0     0.0
 MICROCYCLE DIIS UPDATE:                  195                    5
  196   0.1871438425762  -0.3250577220560     0.0     0.0
  197   0.3531130251549  -0.0214261201227     0.0     0.0
  198   0.7860790483845  -0.4708579796996     0.0     0.0
  199   1.8506291207611   0.6584135153911     0.0     0.0
  200  46.4628559399279   3.1712122976634     0.0     0.0
 MICROCYCLE DIIS UPDATE:                  200                    5
  201   0.2430672002512  -0.3440567072333     0.0     0.0
  202   0.3948412320649   0.0502334344806     0.0     0.0
  203   0.5463400107724  -0.3867003170893     0.0     0.0
  204   0.5606168170073   0.2407599677460     0.0     0.0
  205   0.1627066594339   0.1279689743430     0.0     0.0
 MICROCYCLE DIIS UPDATE:                  205                    5
  206   1.8172813960136  -0.6832887915997     0.0     0.0
  207  22.5679016221316   2.2568857338509     0.0     0.0
  2086634.2911923630845  38.3148861515347     0.0     0.0
  209************************************     0.0     0.0
  210************************************     0.0     0.0
 MICROCYCLE DIIS UPDATE:                  210                    5
  211   1.1596930739870  -0.5643464339516     0.0     0.0
  212   7.3419965179781   1.2908920394667     0.0     0.0
  213 744.4341317232925  12.7860044574840     0.0     0.0
  214******************1210.0611343100227     0.0     0.0
  215************************************     0.0     0.0
 MICROCYCLE DIIS UPDATE:                  215                    5
  216   1.5588494129266  -0.6373645007548     0.0     0.0
  217  15.4663180301910   1.8658879008004     0.0     0.0
  2183171.1091447358090  26.4518578542881     0.0     0.0
  219******************5132.9597135058211     0.0     0.0
  220************************************     0.0     0.0
 MICROCYCLE DIIS UPDATE:                  220                    5
  221   2.0071070122541  -0.7109812349893     0.0     0.0
  222  28.3601927339331   2.5230734337029     0.0     0.0
  223******************  47.8830255978715     0.0     0.0
  224************************************     0.0     0.0
  225************************************     0.0     0.0
 MICROCYCLE DIIS UPDATE:                  225                    5
  226   2.1067891333964  -0.7261244645549     0.0     0.0
  227  31.7524487760298   2.6688341457524     0.0     0.0
  228******************  53.4920295385423     0.0     0.0
  229************************************     0.0     0.0
  230************************************     0.0     0.0
 MICROCYCLE DIIS UPDATE:                  230                    5
  231   2.2172590596447  -0.7426030677319     0.0     0.0
  232  35.7489697571430   2.8310562993379     0.0     0.0
  233******************  60.0918965463945     0.0     0.0
  234************************************     0.0     0.0
  235************************************     0.0     0.0
 MICROCYCLE DIIS UPDATE:                  235                    5
  236   2.3030228891158  -0.7551215557578     0.0     0.0
  237  39.0179201952850   2.9570874361689     0.0     0.0
  238******************  65.4834380177409     0.0     0.0
  239************************************     0.0     0.0
  240************************************     0.0     0.0
 MICROCYCLE DIIS UPDATE:                  240                    5
  241   2.3771482767405  -0.7657672456381     0.0     0.0
  242  41.9615143494609   3.0661286689223     0.0     0.0
  243******************  70.3339628961039     0.0     0.0
  244************************************     0.0     0.0
  245************************************     0.0     0.0
 MICROCYCLE DIIS UPDATE:                  245                    5
  246   2.4423128215843  -0.7749981889455     0.0     0.0
  247  44.6399969147023   3.1620705697725     0.0     0.0
  248******************  74.7443850420699     0.0     0.0
  249************************************     0.0     0.0
  250************************************     0.0     0.0
 MICROCYCLE DIIS UPDATE:                  250                    5
  251   2.5007875856344  -0.7831842186554     0.0     0.0
  252  47.1159953311786   3.2482314640669     0.0     0.0
  253******************  78.8189084720353     0.0     0.0
  254************************************     0.0     0.0
  255************************************     0.0     0.0
 MICROCYCLE DIIS UPDATE:                  255                    5
  256   2.5539559744444  -0.7905504404412     0.0     0.0
  257  49.4269562865579   3.3266302580675     0.0     0.0
  258******************  82.6198679575874     0.0     0.0
  259************************************     0.0     0.0
  260************************************     0.0     0.0
 MICROCYCLE DIIS UPDATE:                  260                    5
  261   2.6027964731546  -0.7972545481181     0.0     0.0
  262  51.5999728559032   3.3986952962630     0.0     0.0
  263******************  86.1923296760869     0.0     0.0
  264************************************     0.0     0.0
  265************************************     0.0     0.0
 MICROCYCLE DIIS UPDATE:                  265                    5
  266   2.6480203819160  -0.8034103790069     0.0     0.0
  267  53.6549888901824   3.4654649016333     0.0     0.0
  268******************  89.5694534267679     0.0     0.0
  269************************************     0.0     0.0
  270************************************     0.0     0.0
 MICROCYCLE DIIS UPDATE:                  270                    5
  271   2.6901666904455  -0.8091035662525     0.0     0.0
  272  55.6073563790658   3.5277259979567     0.0     0.0
  273******************  92.7767512378781     0.0     0.0
  274************************************     0.0     0.0
  275************************************     0.0     0.0
 MICROCYCLE DIIS UPDATE:                  275                    5
  276   2.7296554286100  -0.8144003799325     0.0     0.0
  277  57.4692272835541   3.5860919583037     0.0     0.0
  278******************  95.8344073124000     0.0     0.0
  279************************************     0.0     0.0
  280************************************     0.0     0.0
 MICROCYCLE DIIS UPDATE:                  280                    5
  281   2.7668219530366  -0.8193533692442     0.0     0.0
  282  59.2504643515169   3.6410526431496     0.0     0.0
  283******************  98.7587952679336     0.0     0.0
  284************************************     0.0     0.0
  285************************************     0.0     0.0
 MICROCYCLE DIIS UPDATE:                  285                    5
  286   2.8019392625090  -0.8240050276879     0.0     0.0
  287  60.9592312904531   3.6930069534499     0.0     0.0
  288****************** 101.5634613333131     0.0     0.0
  289************************************     0.0     0.0
  290************************************     0.0     0.0
 MICROCYCLE DIIS UPDATE:                  290                    5
  291   2.8352331216745  -0.8283902716795     0.0     0.0
  292  62.6023914064951   3.7422848848477     0.0     0.0
  293****************** 104.2597884959937     0.0     0.0
  294************************************     0.0     0.0
  295************************************     0.0     0.0
 MICROCYCLE DIIS UPDATE:                  295                    5
  296   2.8668928952943  -0.8325382047459     0.0     0.0
  297  64.1857982565029   3.7891633306355     0.0     0.0
  298****************** 106.8574804561859     0.0     0.0
  299************************************     0.0     0.0
  300************************************     0.0     0.0
 MICROCYCLE DIIS UPDATE:                  300                    5
  301   2.8970791690561  -0.8364733601729     0.0     0.0
  302  65.7144960659390   3.8338771893575     0.0     0.0
  303****************** 109.3648955228017     0.0     0.0
  304************************************     0.0     0.0
  305************************************     0.0     0.0
 MICROCYCLE DIIS UPDATE:                  305                    5
  306   2.9259294875374  -0.8402166306393     0.0     0.0
  307  67.1928734501185   3.8766277308920     0.0     0.0
  308****************** 111.7893025576219     0.0     0.0
  309************************************     0.0     0.0
  310************************************     0.0     0.0
 MICROCYCLE DIIS UPDATE:                  310                    5
  311   2.9535628799314  -0.8437859929274     0.0     0.0
  312  68.6247902387108   3.9175892020955     0.0     0.0
  313****************** 114.1370918485172     0.0     0.0
  314************************************     0.0     0.0
  315************************************     0.0     0.0
 MICROCYCLE DIIS UPDATE:                  315                    5
  316   2.9800828182134  -0.8471969943896     0.0     0.0
  317  70.0136486014192   3.9569131269007     0.0     0.0
  318****************** 116.4138939296896     0.0     0.0
  319************************************     0.0     0.0
  320************************************     0.0     0.0
 MICROCYCLE DIIS UPDATE:                  320                    5
  321   3.0055801601789  -0.8504632145798     0.0     0.0
  322  71.3624818836361   3.9947326101005     0.0     0.0
  323****************** 118.6247269762346     0.0     0.0
  324************************************     0.0     0.0
  325************************************     0.0     0.0
 MICROCYCLE DIIS UPDATE:                  325                    5
  326   3.0301349205208  -0.8535965560976     0.0     0.0
  327  72.6739962032321   4.0311649099985     0.0     0.0
  328****************** 120.7740663432960     0.0     0.0
  329************************************     0.0     0.0
  330************************************     0.0     0.0
 MICROCYCLE DIIS UPDATE:                  330                    5
  331   3.0538181997536  -0.8566075431541     0.0     0.0
  332  73.9506311498512   4.0663142620851     0.0     0.0
  333****************** 122.8659451620965     0.0     0.0
  334************************************     0.0     0.0
  335************************************     0.0     0.0
 MICROCYCLE DIIS UPDATE:                  335                    5
  336   3.0766933421582  -0.8595055098593     0.0     0.0
  337  75.1945878148052   4.1002735620110     0.0     0.0
  338****************** 124.9040011477324     0.0     0.0
  339************************************     0.0     0.0
  340************************************     0.0     0.0
 MICROCYCLE DIIS UPDATE:                  340                    5
  341   3.0988169570883  -0.8622987634794     0.0     0.0
  342  76.4078556653805   4.1331258530566     0.0     0.0
  343****************** 126.8915213576436     0.0     0.0
  344************************************     0.0     0.0
  345************************************     0.0     0.0
 MICROCYCLE DIIS UPDATE:                  345                    5
  346   3.1202401006026  -0.8649947620951     0.0     0.0
  347  77.5922536779992   4.1649460609110     0.0     0.0
  348****************** 128.8315101893088     0.0     0.0
  349************************************     0.0     0.0
  350************************************     0.0     0.0
 MICROCYCLE DIIS UPDATE:                  350                    5
  351   3.1410086752604  -0.8676001870221     0.0     0.0
  352  78.7494326560657   4.1958015645155     0.0     0.0
  353****************** 130.7266936533864     0.0     0.0
  354************************************     0.0     0.0
  355************************************     0.0     0.0
 MICROCYCLE DIIS UPDATE:                  355                    5
  356   3.1611643892447  -0.8701210831529     0.0     0.0
  357  79.8809118690385   4.2257536084541     0.0     0.0
  358****************** 132.5795798162183     0.0     0.0
  359************************************     0.0     0.0
  360************************************     0.0     0.0
 MICROCYCLE DIIS UPDATE:                  360                    5
  361   3.1807450424273  -0.8725629101224     0.0     0.0
  362  80.9880810301032   4.2548577118975     0.0     0.0
  363****************** 134.3924623719799     0.0     0.0
  364************************************     0.0     0.0
  365************************************     0.0     0.0
 MICROCYCLE DIIS UPDATE:                  365                    5
  366   3.1997851734983  -0.8749306370361     0.0     0.0
  367  82.0722247787315   4.2831646210542     0.0     0.0
  368****************** 136.1674610378284     0.0     0.0
  369************************************     0.0     0.0
  370************************************     0.0     0.0
 MICROCYCLE DIIS UPDATE:                  370                    5
  371   3.2183161960574  -0.8772287703018     0.0     0.0
  372  83.1345200491443   4.3107204989609     0.0     0.0
  373****************** 137.9065174833280     0.0     0.0
  374************************************     0.0     0.0
  375************************************     0.0     0.0
 MICROCYCLE DIIS UPDATE:                  375                    5
  376   3.2363670444747  -0.8794614442769     0.0     0.0
  377  84.1760641542873   4.3375678808245     0.0     0.0
  378****************** 139.6114415392458     0.0     0.0
  379************************************     0.0     0.0
  380************************************     0.0     0.0
 MICROCYCLE DIIS UPDATE:                  380                    5
  381   3.2539642174644  -0.8816324343856     0.0     0.0
  382  85.1978696850744   4.3637457290901     0.0     0.0
  383****************** 141.2839030166911     0.0     0.0
  384************************************     0.0     0.0
  385************************************     0.0     0.0
 MICROCYCLE DIIS UPDATE:                  385                    5
  386   3.2711320897693  -0.8837452030178     0.0     0.0
  387  86.2008758087702   4.3892898914355     0.0     0.0
  388****************** 142.9254503650392     0.0     0.0
  389************************************     0.0     0.0
  390************************************     0.0     0.0
 MICROCYCLE DIIS UPDATE:                  390                    5
  391   3.2878932274864  -0.8858029447611     0.0     0.0
  392  87.1859608967504   4.4142335656108     0.0     0.0
  393****************** 144.5375314813631     0.0     0.0
  394************************************     0.0     0.0
  395************************************     0.0     0.0
 MICROCYCLE DIIS UPDATE:                  395                    5
  396   3.3042683706769  -0.8878085892150     0.0     0.0
  397  88.1539363592161   4.4386072666318     0.0     0.0
  398****************** 146.1214837299788     0.0     0.0
  399************************************     0.0     0.0
  400************************************     0.0     0.0
 MICROCYCLE DIIS UPDATE:                  400                    5
  401   3.3202769330903  -0.8897648676481     0.0     0.0
  402  89.1055717414946   4.4624395700145     0.0     0.0
  403****************** 147.6785751314306     0.0     0.0
  404************************************     0.0     0.0
  405************************************     0.0     0.0
 MICROCYCLE DIIS UPDATE:                  405                    5
  406   3.3359366715203  -0.8916742756272     0.0     0.0
  407  90.0415710763278   4.4857566109032     0.0     0.0
  408****************** 149.2099657350729     0.0     0.0
  409************************************     0.0     0.0
  410************************************     0.0     0.0
 MICROCYCLE DIIS UPDATE:                  410                    5
  411   3.3512643074887  -0.8935391536227     0.0     0.0
  412  90.9626064819834   4.5085830116320     0.0     0.0
  413****************** 150.7167626987073     0.0     0.0
  414************************************     0.0     0.0
  415************************************     0.0     0.0
 MICROCYCLE DIIS UPDATE:                  415                    5
  416   3.3662753258627  -0.8953616648642     0.0     0.0
  417  91.8693030696487   4.5309415758356     0.0     0.0
  418****************** 152.1999956482910     0.0     0.0
  419************************************     0.0     0.0
  420************************************     0.0     0.0
 MICROCYCLE DIIS UPDATE:                  420                    5
  421   3.3809841447416  -0.8971438190072     0.0     0.0
  422  92.7622463453037   4.5528535396162     0.0     0.0
  423****************** 153.6606288552349     0.0     0.0
  424************************************     0.0     0.0
  425************************************     0.0     0.0
 MICROCYCLE DIIS UPDATE:                  425                    5
  426   3.3954043153052  -0.8988874990494     0.0     0.0
  427  93.6419919220277   4.5743388682146     0.0     0.0
  428****************** 155.0995771843667     0.0     0.0
  429************************************     0.0     0.0
  430************************************     0.0     0.0
 MICROCYCLE DIIS UPDATE:                  430                    5
  431   3.4095484467652  -0.9005944540953     0.0     0.0
  432  94.5090587480061   4.5954161406310     0.0     0.0
  433****************** 156.5176950580703     0.0     0.0
  434************************************     0.0     0.0
  435************************************     0.0     0.0
 MICROCYCLE DIIS UPDATE:                  435                    5
  436   3.4234283635932  -0.9022663205241     0.0     0.0
  437  95.3639367245470   4.6161027829918     0.0     0.0
  438****************** 157.9157889658084     0.0     0.0
  439************************************     0.0     0.0
  440************************************     0.0     0.0
 MICROCYCLE DIIS UPDATE:                  440                    5
  441   3.4370551721855  -0.9039046317603     0.0     0.0
  442  96.2070890569206   4.6364151663673     0.0     0.0
  443****************** 159.2946213480308     0.0     0.0
  444************************************     0.0     0.0
  445************************************     0.0     0.0
 MICROCYCLE DIIS UPDATE:                  445                    5
  446   3.4504393094249  -0.9055108256477     0.0     0.0
  447  97.0389536732673   4.6563686776595     0.0     0.0
  448****************** 160.6549129512247     0.0     0.0
  449************************************     0.0     0.0
  450************************************     0.0     0.0
 MICROCYCLE DIIS UPDATE:                  450                    5
  451   3.4635905812441  -0.9070862504553     0.0     0.0
  452  97.8599441734107   4.6759777756766     0.0     0.0
  453****************** 161.9973444106325     0.0     0.0
  454************************************     0.0     0.0
  455************************************     0.0     0.0
 MICROCYCLE DIIS UPDATE:                  455                    5
  456   3.4765182083955  -0.9086321716311     0.0     0.0
  457  98.6704513652305   4.6952560582030     0.0     0.0
  458****************** 163.3225587913446     0.0     0.0
  459************************************     0.0     0.0
  460************************************     0.0     0.0
 MICROCYCLE DIIS UPDATE:                  460                    5
  461   3.4892309032728  -0.9101497821979     0.0     0.0
  462  99.4708469050604   4.7142163758710     0.0     0.0
  463****************** 164.6311675681337     0.0     0.0
  464************************************     0.0     0.0
  465************************************     0.0     0.0
 MICROCYCLE DIIS UPDATE:                  465                    5
  466   3.5017369088789  -0.9116402084116     0.0     0.0
  467 100.2614847048866   4.7328708893690     0.0     0.0
  468****************** 165.9237529489866     0.0     0.0
  469************************************     0.0     0.0
  470************************************     0.0     0.0
 MICROCYCLE DIIS UPDATE:                  470                    5
  471   3.5140439415631  -0.9131045036846     0.0     0.0
  472 101.0426962978058   4.7512309822220     0.0     0.0
  473****************** 167.2008603150322     0.0     0.0
  474************************************     0.0     0.0
  475************************************     0.0     0.0
 MICROCYCLE DIIS UPDATE:                  475                    5
  476   3.5261593628079  -0.9145436701779     0.0     0.0
  477 101.8148008540201   4.7693075176885     0.0     0.0
  478****************** 168.4630146214147     0.0     0.0
  479************************************     0.0     0.0
  480************************************     0.0     0.0
 MICROCYCLE DIIS UPDATE:                  480                    5
  481   3.5380901143906  -0.9159586516368     0.0     0.0
  482 102.5781002572935   4.7871107404055     0.0     0.0
  483****************** 169.7107123606174     0.0     0.0
  484************************************     0.0     0.0
  485************************************     0.0     0.0
 MICROCYCLE DIIS UPDATE:                  485                    5
  486   3.5498427682685  -0.9173503400667     0.0     0.0
  487 103.3328815336433   4.8046503503997     0.0     0.0
  488****************** 170.9444255500056     0.0     0.0
  489************************************     0.0     0.0
  490************************************     0.0     0.0
 MICROCYCLE DIIS UPDATE:                  490                    5
  491   3.5614235641872  -0.9187195808471     0.0     0.0
  492 104.0794185886489   4.8219355587637     0.0     0.0
  493****************** 172.1646045866965     0.0     0.0
  494************************************     0.0     0.0
  495************************************     0.0     0.0
 MICROCYCLE DIIS UPDATE:                  495                    5
  496   3.5728384271345  -0.9200671753562     0.0     0.0
  497 104.8179727143468   4.8389751131302     0.0     0.0
  498****************** 173.3716790889040     0.0     0.0
  499************************************     0.0     0.0
  500************************************     0.0     0.0
 MICROCYCLE DIIS UPDATE:                  500                    5
  501   3.5840930214902  -0.9213938879485     0.0     0.0
  502 105.5487955438589   4.8557773783657     0.0     0.0
  503****************** 174.5660627384153     0.0     0.0
  504************************************     0.0     0.0
  505************************************     0.0     0.0
 MICROCYCLE DIIS UPDATE:                  505                    5
  506   3.5951926458753  -0.9227004337942     0.0     0.0
  507 106.2721216566282   4.8723501778974     0.0     0.0
  508****************** 175.7481412003441     0.0     0.0
  509************************************     0.0     0.0
  510************************************     0.0     0.0
 MICROCYCLE DIIS UPDATE:                  510                    5
  511   3.6061424259215  -0.9239875023942     0.0     0.0
  512 106.9881806645542   4.8887010828395     0.0     0.0
  513****************** 176.9182918942940     0.0     0.0
  514************************************     0.0     0.0
  515************************************     0.0     0.0
 MICROCYCLE DIIS UPDATE:                  515                    5
  516   3.6169471949557  -0.9252557436536     0.0     0.0
  517 107.6971889734514   4.9048372321437     0.0     0.0
  518****************** 178.0768705329772     0.0     0.0
  519************************************     0.0     0.0
  520************************************     0.0     0.0
 MICROCYCLE DIIS UPDATE:                  520                    5
  521   3.6276115694385  -0.9265057772554     0.0     0.0
  522 108.3993543016711   4.9207654454851     0.0     0.0
  523****************** 179.2242185183234     0.0     0.0
  524************************************     0.0     0.0
  525************************************     0.0     0.0
 MICROCYCLE DIIS UPDATE:                  525                    5
  526   3.6381399537852  -0.9277381935457     0.0     0.0
  527 109.0948756214299   4.9364922300623     0.0     0.0
  528****************** 180.3606628529340     0.0     0.0
  529************************************     0.0     0.0
  530************************************     0.0     0.0
 MICROCYCLE DIIS UPDATE:                  530                    5
  531   3.6485365507176  -0.9289535550557     0.0     0.0
  532 109.7839434887677   4.9520237957426     0.0     0.0
  533****************** 181.4865166864067     0.0     0.0
  534************************************     0.0     0.0
  535************************************     0.0     0.0
 MICROCYCLE DIIS UPDATE:                  535                    5
  536   3.6588054072024  -0.9301524022257     0.0     0.0
  537 110.4667427801673   4.9673661237621     0.0     0.0
  538****************** 182.6020837948995     0.0     0.0
  539************************************     0.0     0.0
  540************************************     0.0     0.0
 MICROCYCLE DIIS UPDATE:                  540                    5
  541   3.6689503330802  -0.9313352439882     0.0     0.0
  542 111.1434469552478   4.9825248439983     0.0     0.0
  543****************** 183.7076492090587     0.0     0.0
  544************************************     0.0     0.0
  545************************************     0.0     0.0
 MICROCYCLE DIIS UPDATE:                  545                    5
  546   3.6789749833236  -0.9325025677784     0.0     0.0
  547 111.8142232419320   4.9975053583198     0.0     0.0
  548****************** 184.8034876953832     0.0     0.0
  549************************************     0.0     0.0
  550************************************     0.0     0.0
 MICROCYCLE DIIS UPDATE:                  550                    5
  551   3.6888828907327  -0.9336548436048     0.0     0.0
  552 112.4792345888156   5.0123128894728     0.0     0.0
  553****************** 185.8898669519032     0.0     0.0
  554************************************     0.0     0.0
  555************************************     0.0     0.0
 MICROCYCLE DIIS UPDATE:                  555                    5
  556   3.6986774246976  -0.9347925193543     0.0     0.0
  557 113.1386366587136   5.0269524187819     0.0     0.0
  558****************** 186.9670426988925     0.0     0.0
  559************************************     0.0     0.0
  560************************************     0.0     0.0
 MICROCYCLE DIIS UPDATE:                  560                    5
  561   3.7083617975968  -0.9359160217415     0.0     0.0
  562 113.7925780147643   5.0414286954948     0.0     0.0
  563****************** 188.0352589877210     0.0     0.0
  564************************************     0.0     0.0
  565************************************     0.0     0.0
 MICROCYCLE DIIS UPDATE:                  565                    5
  566   3.7179390583479  -0.9370257557314     0.0     0.0
  567 114.4411994469103   5.0557462268158     0.0     0.0
  568****************** 189.0947471046672     0.0     0.0
  569************************************     0.0     0.0
  570************************************     0.0     0.0
 MICROCYCLE DIIS UPDATE:                  570                    5
  571   3.7274122251288  -0.9381221203319     0.0     0.0
  572 115.0846428066252   5.0699094773732     0.0     0.0
  573****************** 190.1457400119653     0.0     0.0
  574************************************     0.0     0.0
  575************************************     0.0     0.0
 MICROCYCLE DIIS UPDATE:                  575                    5
  576   3.7367840995498  -0.9392054868452     0.0     0.0
  577 115.7230381783231   5.0839225894165     0.0     0.0
  578****************** 191.1884513873977     0.0     0.0
  579************************************     0.0     0.0
  580************************************     0.0     0.0
 MICROCYCLE DIIS UPDATE:                  580                    5
  581   3.7460574237070  -0.9402762175015     0.0     0.0
  582 116.3565143972094   5.0977896189125     0.0     0.0
  583****************** 192.2230928152211     0.0     0.0
  584************************************     0.0     0.0
  585************************************     0.0     0.0
 MICROCYCLE DIIS UPDATE:                  585                    5
  586   3.7552348507298  -0.9413346621010     0.0     0.0
  587 116.9851969055143   5.1115144910674     0.0     0.0
  588****************** 193.2498702855691     0.0     0.0
  589************************************     0.0     0.0
  590************************************     0.0     0.0
 MICROCYCLE DIIS UPDATE:                  590                    5
  591   3.7643188245020  -0.9423811440392     0.0     0.0
  592 117.6091993033450   5.1251008191096     0.0     0.0
  593****************** 194.2689703924131     0.0     0.0
  594************************************     0.0     0.0
  595************************************     0.0     0.0
 MICROCYCLE DIIS UPDATE:                  595                    5
  596   3.7733118172786  -0.9434159882786     0.0     0.0
  597 118.2286395616982   5.1385522617496     0.0     0.0
  598****************** 195.2805868269113     0.0     0.0
  599************************************     0.0     0.0
  600************************************     0.0     0.0
 MICROCYCLE DIIS UPDATE:                  600                    5
  601   3.7822161638714  -0.9444395020047     0.0     0.0
  602 118.8436284850080   5.1518722734866     0.0     0.0
  603****************** 196.2849015285471     0.0     0.0
  604************************************     0.0     0.0
  605************************************     0.0     0.0
 MICROCYCLE DIIS UPDATE:                  605                    5
  606   3.7910340684325  -0.9454519755440     0.0     0.0
  607 119.4542700112705   5.1650641146423     0.0     0.0
  608****************** 197.2820851786397     0.0     0.0
  609************************************     0.0     0.0
  610************************************     0.0     0.0
 MICROCYCLE DIIS UPDATE:                  610                    5
  611   3.7997677440856  -0.9464536987606     0.0     0.0
  612 120.0606708006979   5.1781310614370     0.0     0.0
  613****************** 198.2723128676448     0.0     0.0
  614************************************     0.0     0.0
  615************************************     0.0     0.0
 MICROCYCLE DIIS UPDATE:                  615                    5
  616   3.8084191907446  -0.9474449352140     0.0     0.0
  617 120.6629246512012   5.1910760713656     0.0     0.0
  618****************** 199.2557386371465     0.0     0.0
  619************************************     0.0     0.0
  620************************************     0.0     0.0
 MICROCYCLE DIIS UPDATE:                  620                    5
  621   3.8169905191101  -0.9484259600106     0.0     0.0
  622 121.2611350088743   5.2039022708916     0.0     0.0
  623****************** 200.2325322555791     0.0     0.0
  624************************************     0.0     0.0
  625************************************     0.0     0.0
 MICROCYCLE DIIS UPDATE:                  625                    5
  626   3.8254835917607  -0.9493970180633     0.0     0.0
  627 121.8553897800472   5.2166124149472     0.0     0.0
  628****************** 201.2028380730566     0.0     0.0
  629************************************     0.0     0.0
  630************************************     0.0     0.0
 MICROCYCLE DIIS UPDATE:                  630                    5
  631   3.8339002875024  -0.9503583549527     0.0     0.0
  632 122.4457797244711   5.2292092848398     0.0     0.0
  633****************** 202.1668050699467     0.0     0.0
  634************************************     0.0     0.0
  635************************************     0.0     0.0
 MICROCYCLE DIIS UPDATE:                  635                    5
  636   3.8422423838974  -0.9513102033233     0.0     0.0
  637 123.0323901336698   5.2416955112774     0.0     0.0
  638****************** 203.1245732647344     0.0     0.0
  639************************************     0.0     0.0
  640************************************     0.0     0.0
 MICROCYCLE DIIS UPDATE:                  640                    5
  641   3.8505116427227  -0.9522527928677     0.0     0.0
  642 123.6153067715732   5.2540737029752     0.0     0.0
  643****************** 204.0762834191455     0.0     0.0
  644************************************     0.0     0.0
  645************************************     0.0     0.0
 MICROCYCLE DIIS UPDATE:                  645                    5
  646   3.8587097748312  -0.9531863462946     0.0     0.0
  647 124.1946133374352   5.2663463936664     0.0     0.0
  648****************** 205.0220728950932     0.0     0.0
  649************************************     0.0     0.0
  650************************************     0.0     0.0
 MICROCYCLE DIIS UPDATE:                  650                    5
  651   3.8668383493051  -0.9541110688762     0.0     0.0
  652 124.7703849262643   5.2785159051647     0.0     0.0
  653****************** 205.9620649752930     0.0     0.0
  654************************************     0.0     0.0
  655************************************     0.0     0.0
 MICROCYCLE DIIS UPDATE:                  655                    5
  656   3.8748989509850  -0.9550271667437     0.0     0.0
  657 125.3426991301392   5.2905845845574     0.0     0.0
  658****************** 206.8963869963876     0.0     0.0
  659************************************     0.0     0.0
  660************************************     0.0     0.0
 MICROCYCLE DIIS UPDATE:                  660                    5
  661   3.8828930882994  -0.9559348362635     0.0     0.0
  662 125.9116294340664   5.3025546653085     0.0     0.0
  663****************** 207.8251595635998     0.0     0.0
  664************************************     0.0     0.0
  665************************************     0.0     0.0
 MICROCYCLE DIIS UPDATE:                  665                    5
  666   3.8908222283831  -0.9568342681466     0.0     0.0
  667 126.4772476493135   5.3144283200866     0.0     0.0
  668****************** 208.7485005261260     0.0     0.0
  669************************************     0.0     0.0
  670************************************     0.0     0.0
 MICROCYCLE DIIS UPDATE:                  670                    5
  671   3.8986878154685  -0.9577256496076     0.0     0.0
  672 127.0396251810282   5.3262076884163     0.0     0.0
  673****************** 209.6665270481836     0.0     0.0
  674************************************     0.0     0.0
  675************************************     0.0     0.0
 MICROCYCLE DIIS UPDATE:                  675                    5
  676   3.9064912136422  -0.9586091578072     0.0     0.0
  677 127.5988288660239   5.3378947903694     0.0     0.0
  678****************** 210.5793488127675     0.0     0.0
  679************************************     0.0     0.0
  680************************************     0.0     0.0
 MICROCYCLE DIIS UPDATE:                  680                    5
  681   3.9142336988405  -0.9594849589895     0.0     0.0
  682 128.1549203110254   5.3494915144186     0.0     0.0
  683****************** 211.4870669425323     0.0     0.0
  684************************************     0.0     0.0
  685************************************     0.0     0.0
 MICROCYCLE DIIS UPDATE:                  685                    5
  686   3.9219166339199  -0.9603532286513     0.0     0.0
  687 128.7079684738675   5.3609998812059     0.0     0.0
  688****************** 212.3897945454029     0.0     0.0
  689************************************     0.0     0.0
  690************************************     0.0     0.0
 MICROCYCLE DIIS UPDATE:                  690                    5
  691   3.9295411975552  -0.9612141204033     0.0     0.0
  692 129.2580300552407   5.3724216349635     0.0     0.0
  693****************** 213.2876246957953     0.0     0.0
  694************************************     0.0     0.0
  695************************************     0.0     0.0
 MICROCYCLE DIIS UPDATE:                  695                    5
  696   3.9371086268062  -0.9620677938862     0.0     0.0
  697 129.8051669666211   5.3837586089909     0.0     0.0
  698****************** 214.1806589596988     0.0     0.0
  699************************************     0.0     0.0
  700************************************     0.0     0.0
 MICROCYCLE DIIS UPDATE:                  700                    5
  701   3.9446201238314  -0.9629144040698     0.0     0.0
  702 130.3494395673863   5.3950125850508     0.0     0.0
  703****************** 215.0689963517207     0.0     0.0
  704************************************     0.0     0.0
  705************************************     0.0     0.0
 MICROCYCLE DIIS UPDATE:                  705                    5
  706   3.9520767973574  -0.9637540945844     0.0     0.0
  707 130.8909023506096   5.4061852050901     0.0     0.0
  708****************** 215.9527262918050     0.0     0.0
  709************************************     0.0     0.0
  710************************************     0.0     0.0
 MICROCYCLE DIIS UPDATE:                  710                    5
  711   3.9594797218256  -0.9645870045405     0.0     0.0
  712 131.4296081833700   5.4172780603272     0.0     0.0
  713****************** 216.8319355299435     0.0     0.0
  714************************************     0.0     0.0
  715************************************     0.0     0.0
 MICROCYCLE DIIS UPDATE:                  715                    5
  716   3.9668300132724  -0.9654132772261     0.0     0.0
  717 131.9656138302709   5.4282928056116     0.0     0.0
  718****************** 217.7067171649088     0.0     0.0
  719************************************     0.0     0.0
  720************************************     0.0     0.0
 MICROCYCLE DIIS UPDATE:                  720                    5
  721   3.9741286717969  -0.9662330421158     0.0     0.0
  722 132.4989684019322   5.4392309219135     0.0     0.0
  723****************** 218.5771517845926     0.0     0.0
  724************************************     0.0     0.0
  725************************************     0.0     0.0
 MICROCYCLE DIIS UPDATE:                  725                    5
  726   3.9813767318980  -0.9670464320815     0.0     0.0
  727 133.0297243206518   5.4500939429154     0.0     0.0
  728****************** 219.4433253701577     0.0     0.0
  729************************************     0.0     0.0
  730************************************     0.0     0.0
 MICROCYCLE DIIS UPDATE:                  730                    5
  731   3.9885751457385  -0.9678535700836     0.0     0.0
  732 133.5579287258163   5.4608832789898     0.0     0.0
  733****************** 220.3053152646787     0.0     0.0
  734************************************     0.0     0.0
  735************************************     0.0     0.0
 MICROCYCLE DIIS UPDATE:                  735                    5
  736   3.9957249367825  -0.9686545867114     0.0     0.0
  737 134.0836347561867   5.4716004488141     0.0     0.0
  738****************** 221.1632085928304     0.0     0.0
  739************************************     0.0     0.0
  740************************************     0.0     0.0
 MICROCYCLE DIIS UPDATE:                  740                    5
  741   4.0028269184094  -0.9694495881480     0.0     0.0
  742 134.6068807556956   5.4822466550535     0.0     0.0
  743****************** 222.0170683142076     0.0     0.0
  744************************************     0.0     0.0
  745************************************     0.0     0.0
 MICROCYCLE DIIS UPDATE:                  745                    5
  746   4.0098820574262  -0.9702386975932     0.0     0.0
  747 135.1277170806271   5.4928233324451     0.0     0.0
  748****************** 222.8669769871156     0.0     0.0
  749************************************     0.0     0.0
  750************************************     0.0     0.0
 MICROCYCLE DIIS UPDATE:                  750                    5
  751   4.0168912184165  -0.9710220261677     0.0     0.0
  752 135.6461871977496   5.5033317622986     0.0     0.0
  753****************** 223.7130059114201     0.0     0.0
  754************************************     0.0     0.0
  755************************************     0.0     0.0
 MICROCYCLE DIIS UPDATE:                  755                    5
  756   4.0238552374640  -0.9717996813321     0.0     0.0
  757 136.1623330921688   5.5137731836204     0.0     0.0
  758****************** 224.5552239575553     0.0     0.0
  759************************************     0.0     0.0
  760************************************     0.0     0.0
 MICROCYCLE DIIS UPDATE:                  760                    5
  761   4.0307749444513  -0.9725717694356     0.0     0.0
  762 136.6761969027957   5.5241488267174     0.0     0.0
  763****************** 225.3937002366231     0.0     0.0
  764************************************     0.0     0.0
  765************************************     0.0     0.0
 MICROCYCLE DIIS UPDATE:                  765                    5
  766   4.0376511527588  -0.9733383945581     0.0     0.0
  767 137.1878201399056   5.5344598976439     0.0     0.0
  768****************** 226.2285028234314     0.0     0.0
  769************************************     0.0     0.0
  770************************************     0.0     0.0
 MICROCYCLE DIIS UPDATE:                  770                    5
  771   4.0444846180599  -0.9740996538593     0.0     0.0
  772 137.6972405785823   5.5447075160217     0.0     0.0
  773****************** 227.0596936861532     0.0     0.0
  774************************************     0.0     0.0
  775************************************     0.0     0.0
 MICROCYCLE DIIS UPDATE:                  775                    5
  776   4.0512761019995  -0.9748556448130     0.0     0.0
  777 138.2044969903324   5.5548928110614     0.0     0.0
  778****************** 227.8873364101563     0.0     0.0
  779************************************     0.0     0.0
  780************************************     0.0     0.0
 MICROCYCLE DIIS UPDATE:                  780                    5
  781   4.0580264137762  -0.9756064699111     0.0     0.0
  782 138.7096322679645   5.5650169842872     0.0     0.0
  783****************** 228.7115012983859     0.0     0.0
  784************************************     0.0     0.0
  785************************************     0.0     0.0
 MICROCYCLE DIIS UPDATE:                  785                    5
  786   4.0647361887198  -0.9763522116406     0.0     0.0
  787 139.2126767694790   5.5750809754879     0.0     0.0
  788****************** 229.5322381857679     0.0     0.0
  789************************************     0.0     0.0
  790************************************     0.0     0.0
 MICROCYCLE DIIS UPDATE:                  790                    5
  791   4.0714061858653  -0.9770929661453     0.0     0.0
  792 139.7136706515440   5.5850859115905     0.0     0.0
  793****************** 230.3496128920342     0.0     0.0
  794************************************     0.0     0.0
  795************************************     0.0     0.0
 MICROCYCLE DIIS UPDATE:                  795                    5
  796   4.0780370247717  -0.9778288135002     0.0     0.0
  797 140.2126440479921   5.5950327096118     0.0     0.0
  798****************** 231.1636748701988     0.0     0.0
  799************************************     0.0     0.0
  800************************************     0.0     0.0
 MICROCYCLE DIIS UPDATE:                  800                    5
  801   4.0846294495952  -0.9785598475312     0.0     0.0
  802 140.7096369732985   5.6049224750451     0.0     0.0
  803****************** 231.9744896915489     0.0     0.0
  804************************************     0.0     0.0
  805************************************     0.0     0.0
 MICROCYCLE DIIS UPDATE:                  805                    5
  806   4.0911840347459  -0.9792861426263     0.0     0.0
  807 141.2046770636731   5.6147560577513     0.0     0.0
  808****************** 232.7821027176193     0.0     0.0
  809************************************     0.0     0.0
  810************************************     0.0     0.0
 MICROCYCLE DIIS UPDATE:                  810                    5
[...]
 5775************************************     0.0     0.0
 MICROCYCLE DIIS UPDATE:                 5775                    5
 5776   7.1985701686476  -1.2781710186755     0.0     0.0
 5777 478.2264336960566  10.3262212901490     0.0     0.0
 5778****************** 780.7991420158230     0.0     0.0
 5779************************************     0.0     0.0
 5780************************************     0.0     0.0
 MICROCYCLE DIIS UPDATE:                 5780                    5
 5781   7.2007440150841  -1.2783558224654     0.0     0.0
 5782 478.5343646512574  10.3295430554940     0.0     0.0
 5783****************** 781.2989560775582     0.0     0.0
 5784************************************     0.0     0.0
 5785************************************     0.0     0.0
 MICROCYCLE DIIS UPDATE:                 5785                    5
 5786   7.2029170082340  -1.2785405272217     0.0     0.0
 5787 478.8422763158921  10.3328635441508     0.0     0.0
 5788****************** 781.7987378401237     0.0     0.0
 5789************************************     0.0     0.0
 5790************************************     0.0     0.0
 MICROCYCLE DIIS UPDATE:                 5790                    5
 5791   7.2050891020701  -1.2787251290272     0.0     0.0
 5792 479.1501620333659  10.3361826855408     0.0     0.0
 5793****************** 782.2984764986340     0.0     0.0
 5794************************************     0.0     0.0
 5795************************************     0.0     0.0
 MICROCYCLE DIIS UPDATE:                 5795                    5
 5796   7.2072603396310  -1.2789096316264     0.0     0.0
 5797 479.4580277941309  10.3395005455642     0.0     0.0
 5798****************** 782.7981817788724     0.0     0.0
 5799************************************     0.0     0.0
 5800************************************     0.0     0.0
 MICROCYCLE DIIS UPDATE:                 5800                    5
 5801   7.2094306424464  -1.2790940283134     0.0     0.0
 5802 479.7658623254941  10.3428170039259     0.0     0.0
 5803****************** 783.2978353824653     0.0     0.0
 5804************************************     0.0     0.0
 5805************************************     0.0     0.0
 MICROCYCLE DIIS UPDATE:                 5805                    5
 5806   7.2116001082265  -1.2792783275335     0.0     0.0
 5807 480.0736793906365  10.3461322103044     0.0     0.0
 5808****************** 783.7974596530172     0.0     0.0
 5809************************************     0.0     0.0
 5810************************************     0.0     0.0
 MICROCYCLE DIIS UPDATE:                 5810                    5
 5811   7.2137686306697  -1.2794625201892     0.0     0.0
 5812 480.3814637537918  10.3494460017549     0.0     0.0
 5813****************** 784.2970298587827     0.0     0.0
 5814************************************     0.0     0.0
 5815************************************     0.0     0.0
 MICROCYCLE DIIS UPDATE:                 5815                    5
 5816   7.2159363605315  -1.2796466192830     0.0     0.0
 5817 480.6892367334111  10.3527586092451     0.0     0.0
 5818****************** 784.7965806080414     0.0     0.0
 5819************************************     0.0     0.0
 5820************************************     0.0     0.0
 MICROCYCLE DIIS UPDATE:                 5820                    5
 5821   7.2181031132426  -1.2798306089922     0.0     0.0
 5822 480.9969719505785  10.3560697498903     0.0     0.0
 5823****************** 785.2960690800284     0.0     0.0
 5824************************************     0.0     0.0
 5825************************************     0.0     0.0
 MICROCYCLE DIIS UPDATE:                 5825                    5
 5826   7.2202690464784  -1.2800145029111     0.0     0.0
 5827 481.3046917183507  10.3593796652646     0.0     0.0
 5828****************** 785.7955314975006     0.0     0.0
 5829************************************     0.0     0.0
 5830************************************     0.0     0.0
 MICROCYCLE DIIS UPDATE:                 5830                    5
 5831   7.2224340593172  -1.2801982924092     0.0     0.0
 5832 481.6123815500294  10.3626882006641     0.0     0.0
 5833****************** 786.2949443448664     0.0     0.0
 5834************************************     0.0     0.0
 5835************************************     0.0     0.0
 MICROCYCLE DIIS UPDATE:                 5835                    5
 5836   7.2245982484240  -1.2803819858338     0.0     0.0
 5837 481.9200550894755  10.3659955041727     0.0     0.0
 5838****************** 786.7943297717454     0.0     0.0
 5839************************************     0.0     0.0
 5840************************************     0.0     0.0
 MICROCYCLE DIIS UPDATE:                 5840                    5
 5841   7.2267615259552  -1.2805655756802     0.0     0.0
 5842 482.2276997038883  10.3693014411263     0.0     0.0
 5843****************** 787.2936672721158     0.0     0.0
 5844************************************     0.0     0.0
 5845************************************     0.0     0.0
 MICROCYCLE DIIS UPDATE:                 5845                    5
 5846   7.2289239105505  -1.2807490635921     0.0     0.0
 5847 482.5353179242005  10.3726060400387     0.0     0.0
 5848****************** 787.7929609556744     0.0     0.0
 5849************************************     0.0     0.0
 5850************************************     0.0     0.0
 MICROCYCLE DIIS UPDATE:                 5850                    5
 5851   7.2310854228014  -1.2809324513803     0.0     0.0
 5852 482.8429125633011  10.3759093324169     0.0     0.0
 5853****************** 788.2922153897898     0.0     0.0
 5854************************************     0.0     0.0
 5855************************************     0.0     0.0
 MICROCYCLE DIIS UPDATE:                 5855                    5
 5856   7.2332460732393  -1.2811157399906     0.0     0.0
 5857 483.1504850028140  10.3792113343513     0.0     0.0
 5858****************** 788.7914328184038     0.0     0.0
 5859************************************     0.0     0.0
 5860************************************     0.0     0.0
 MICROCYCLE DIIS UPDATE:                 5860                    5
 5861   7.2354058376391  -1.2812989273847     0.0     0.0
 5862 483.4580316666891  10.3825120086684     0.0     0.0
 5863****************** 789.2906074376062     0.0     0.0
 5864************************************     0.0     0.0
 5865************************************     0.0     0.0
 MICROCYCLE DIIS UPDATE:                 5865                    5
 5866   7.2375647370817  -1.2814820154141     0.0     0.0
 5867 483.7655554416193  10.3858113876261     0.0     0.0
 5868****************** 789.7897439345321     0.0     0.0
 5869************************************     0.0     0.0
 5870************************************     0.0     0.0
 MICROCYCLE DIIS UPDATE:                 5870                    5
 5871   7.2397226773684  -1.2816649960362     0.0     0.0
 5872 484.0730427572734  10.3891093268126     0.0     0.0
 5873****************** 790.2888202815582     0.0     0.0
 5874************************************     0.0     0.0
 5875************************************     0.0     0.0
 MICROCYCLE DIIS UPDATE:                 5875                    5
 5876   7.2418798269697  -1.2818478837510     0.0     0.0
 5877 484.3805175450243  10.3924060843651     0.0     0.0
 5878****************** 790.7878753276993     0.0     0.0
 5879************************************     0.0     0.0
 5880************************************     0.0     0.0
 MICROCYCLE DIIS UPDATE:                 5880                    5
 5881   7.2440360899717  -1.2820306703687     0.0     0.0
 5882 484.6879659912370  10.3957015132450     0.0     0.0
 5883****************** 791.2868866503696     0.0     0.0
 5884************************************     0.0     0.0
 5885************************************     0.0     0.0
 MICROCYCLE DIIS UPDATE:                 5885                    5
 5886   7.2461914508675  -1.2822133546008     0.0     0.0
 5887 484.9953857570815  10.3989955896376     0.0     0.0
 5888****************** 791.7858504541133     0.0     0.0
 5889************************************     0.0     0.0
 5890************************************     0.0     0.0
 MICROCYCLE DIIS UPDATE:                 5890                    5
 5891   7.2483460216251  -1.2823959460931     0.0     0.0
 5892 485.3027927269282  10.4022884850938     0.0     0.0
 5893****************** 792.2847925250272     0.0     0.0
 5894************************************     0.0     0.0
 5895************************************     0.0     0.0
 MICROCYCLE DIIS UPDATE:                 5895                    5
 5896   7.2504996685682  -1.2825784334206     0.0     0.0
 5897 485.6101676730736  10.4055799946973     0.0     0.0
 5898****************** 792.7836816520728     0.0     0.0
 5899************************************     0.0     0.0
 5900************************************     0.0     0.0
 MICROCYCLE DIIS UPDATE:                 5900                    5
 5901   7.2526524783919  -1.2827608240599     0.0     0.0
 5902 485.9175228715078  10.4088702512668     0.0     0.0
 5903****************** 793.2825377638492     0.0     0.0
 5904************************************     0.0     0.0
 5905************************************     0.0     0.0
 MICROCYCLE DIIS UPDATE:                 5905                    5
 5906   7.2548043672163  -1.2829431108598     0.0     0.0
 5907 486.2248462023521  10.4121591262000     0.0     0.0
 5908****************** 793.7813411874869     0.0     0.0
 5909************************************     0.0     0.0
 5910************************************     0.0     0.0
 MICROCYCLE DIIS UPDATE:                 5910                    5
 5911   7.2569554500406  -1.2831253037210     0.0     0.0
 5912 486.5321540021952  10.4154467956975     0.0     0.0
 5913****************** 794.2801184429754     0.0     0.0
 5914************************************     0.0     0.0
 5915************************************     0.0     0.0
 MICROCYCLE DIIS UPDATE:                 5915                    5
 5916   7.2591056343728  -1.2833073947549     0.0     0.0
 5917 486.8394329144950  10.4187331179573     0.0     0.0
 5918****************** 794.7788478500387     0.0     0.0
 5919************************************     0.0     0.0
 5920************************************     0.0     0.0
 MICROCYCLE DIIS UPDATE:                 5920                    5
 5921   7.2612549613840  -1.2834893875319     0.0     0.0
 5922 487.1466887134834  10.4220181560313     0.0     0.0
 5923****************** 795.2775387829746     0.0     0.0
 5924************************************     0.0     0.0
 5925************************************     0.0     0.0
 MICROCYCLE DIIS UPDATE:                 5925                    5
 5926   7.2634034112805  -1.2836712803964     0.0     0.0
 5927 487.4539184447183  10.4253018795347     0.0     0.0
 5928****************** 795.7761864470403     0.0     0.0
 5929************************************     0.0     0.0
 5930************************************     0.0     0.0
 MICROCYCLE DIIS UPDATE:                 5930                    5
 5931   7.2655509904748  -1.2838530739390     0.0     0.0
 5932 487.7611229067613  10.4285842982478     0.0     0.0
 5933****************** 796.2747921396420     0.0     0.0
 5934************************************     0.0     0.0
 5935************************************     0.0     0.0
 MICROCYCLE DIIS UPDATE:                 5935                    5
 5936   7.2676977005669  -1.2840347683375     0.0     0.0
 5937 488.0683022092965  10.4318654145750     0.0     0.0
 5938****************** 796.7733560399470     0.0     0.0
 5939************************************     0.0     0.0
 5940************************************     0.0     0.0
 MICROCYCLE DIIS UPDATE:                 5940                    5
 5941   7.2698436016895  -1.2842163687830     0.0     0.0
 5942 488.3754648583262  10.4351453206340     0.0     0.0
 5943****************** 797.2718919565061     0.0     0.0
 5944************************************     0.0     0.0
 5945************************************     0.0     0.0
 MICROCYCLE DIIS UPDATE:                 5945                    5
 5946   7.2719886195458  -1.2843978689520     0.0     0.0
 5947 488.6826000822107  10.4384239025043     0.0     0.0
 5948****************** 797.7703824052506     0.0     0.0
 5949************************************     0.0     0.0
 5950************************************     0.0     0.0
 MICROCYCLE DIIS UPDATE:                 5950                    5
 5951   7.2741327070473  -1.2845792648537     0.0     0.0
 5952 488.9897010009071  10.4417010879645     0.0     0.0
 5953****************** 798.2688162192777     0.0     0.0
 5954************************************     0.0     0.0
 5955************************************     0.0     0.0
 MICROCYCLE DIIS UPDATE:                 5955                    5
 5956   7.2762760640988  -1.2847605736446     0.0     0.0
 5957 489.2967961885635  10.4449771833641     0.0     0.0
 5958****************** 798.7672397827099     0.0     0.0
 5959************************************     0.0     0.0
 5960************************************     0.0     0.0
 MICROCYCLE DIIS UPDATE:                 5960                    5
 5961   7.2784184977052  -1.2849417788409     0.0     0.0
 5962 489.6038578263777  10.4482518928508     0.0     0.0
 5963****************** 799.2656079397611     0.0     0.0
 5964************************************     0.0     0.0
 5965************************************     0.0     0.0
 MICROCYCLE DIIS UPDATE:                 5965                    5
 5966   7.2805601236388  -1.2851228903934     0.0     0.0
 5967 489.9109024206006  10.4515253938245     0.0     0.0
 5968****************** 799.7639474852490     0.0     0.0
 5969************************************     0.0     0.0
 5970************************************     0.0     0.0
 MICROCYCLE DIIS UPDATE:                 5970                    5
 5971   7.2827008451459  -1.2853039000610     0.0     0.0
 5972 490.2179159554655  10.4547975379404     0.0     0.0
 5973****************** 800.2622356692780     0.0     0.0
 5974************************************     0.0     0.0
 5975************************************     0.0     0.0
 MICROCYCLE DIIS UPDATE:                 5975                    5
 5976   7.2848406822651  -1.2854848095999     0.0     0.0
 5977 490.5249011877204  10.4580683558641     0.0     0.0
 5978****************** 800.7604769678562     0.0     0.0
 5979************************************     0.0     0.0
 5980************************************     0.0     0.0
 MICROCYCLE DIIS UPDATE:                 5980                    5
 5981   7.2869796964331  -1.2856656243069     0.0     0.0
 5982 490.8318668312435  10.4613379417167     0.0     0.0
 5983****************** 801.2586855267637     0.0     0.0
 5984************************************     0.0     0.0
 5985************************************     0.0     0.0
 MICROCYCLE DIIS UPDATE:                 5985                    5
 5986   7.2891179124493  -1.2858463463422     0.0     0.0
 5987 491.1388163409271  10.4646063334656     0.0     0.0
 5988****************** 801.7568669551360     0.0     0.0
 5989************************************     0.0     0.0
 5990************************************     0.0     0.0
 MICROCYCLE DIIS UPDATE:                 5990                    5
 5991   7.2912552043125  -1.2860269649674     0.0     0.0
 5992 491.4457314759036  10.4678733379314     0.0     0.0
 5993****************** 802.2549916449449     0.0     0.0
 5994************************************     0.0     0.0
 5995************************************     0.0     0.0
 MICROCYCLE DIIS UPDATE:                 5995                    5
 5996   7.2933916866653  -1.2862074900282     0.0     0.0
 5997 491.7526286120043  10.4711391307907     0.0     0.0
 5998****************** 802.7530861789930     0.0     0.0
 5999************************************     0.0     0.0
 6000************************************     0.0     0.0
 MICROCYCLE DIIS UPDATE:                 6000                    5
 ------------------------------------------------------------------------
 tce_energy: maxiter exceeded                6001
 ------------------------------------------------------------------------
 ------------------------------------------------------------------------
  current input line : 
    24: task tce energy
 ------------------------------------------------------------------------
 ------------------------------------------------------------------------
 This type of error is most commonly associated with calculations not reaching convergence criteria
 ------------------------------------------------------------------------
 For more information see the NWChem manual at https://nwchemgit.github.io


 For further details see manual section:                                                                                                                                                                                                                                                                
 tce_energy: maxiter exceeded                6001
 ------------------------------------------------------------------------
 ------------------------------------------------------------------------
  current input line : 
     0: 
 ------------------------------------------------------------------------
 ------------------------------------------------------------------------
 This type of error is most commonly associated with calculations not reaching convergence criteria
 ------------------------------------------------------------------------
 For more information see the NWChem manual at https://nwchemgit.github.io


 For further details see manual section:                                                                                                                                                                                                                                                                
 tce_energy: maxiter exceeded                6001
 ------------------------------------------------------------------------
 ------------------------------------------------------------------------
  current input line : 
     0: 
 ------------------------------------------------------------------------
 ------------------------------------------------------------------------
 This type of error is most commonly associated with calculations not reaching convergence criteria
 ------------------------------------------------------------------------
 For more information see the NWChem manual at https://nwchemgit.github.io


 For further details see manual section:                                                                                                                                                                                                                                                                
 tce_energy: maxiter exceeded                6001
 ------------------------------------------------------------------------
 ------------------------------------------------------------------------
  current input line : 
     0: 
 ------------------------------------------------------------------------
 ------------------------------------------------------------------------
 This type of error is most commonly associated with calculations not reaching convergence criteria
 ------------------------------------------------------------------------
 For more information see the NWChem manual at https://nwchemgit.github.io


 For further details see manual section:                                                                                                                                                                                                                                                                
