 argument  1 = diethyletherOptimized.txt



============================== echo of input deck ==============================
echo

start molecule

title "diethylether"
memory total 2 gb

charge 0
geometry units angstrom print xyz
 O     0.00000000     0.00000000    -0.22784882
 C    -1.17572811     0.00000000     0.52502392
 C     1.17572811     0.00000000     0.52502392
 C    -2.35878452     0.00000000    -0.41940646
 C     2.35878452     0.00000000    -0.41940646
 H    -1.20754240     0.88298938     1.17637288
 H    -1.20754240    -0.88298938     1.17637288
 H     1.20754240    -0.88298938     1.17637288
 H     1.20754240     0.88298938     1.17637288
 H    -3.29612084     0.00000000     0.14134896
 H    -2.33527916    -0.88415659    -1.05869291
 H    -2.33527916     0.88415659    -1.05869291
 H     3.29612084     0.00000000     0.14134896
 H     2.33527916    -0.88415659    -1.05869291
 H     2.33527916     0.88415659    -1.05869291

end

basis spherical
 * library 6-311G
end

task scf
================================================================================


                                         
                                         


             Northwest Computational Chemistry Package (NWChem) 7.2.2
             --------------------------------------------------------


                    Environmental Molecular Sciences Laboratory
                       Pacific Northwest National Laboratory
                                Richland, WA 99352

                              Copyright (c) 1994-2022
                       Pacific Northwest National Laboratory
                            Battelle Memorial Institute

             NWChem is an open-source computational chemistry package
                        distributed under the terms of the
                      Educational Community License (ECL) 2.0
             A copy of the license is included with this distribution
                              in the LICENSE.TXT file

                                  ACKNOWLEDGMENT
                                  --------------

            This software and its documentation were developed at the
            EMSL at Pacific Northwest National Laboratory, a multiprogram
            national laboratory, operated for the U.S. Department of Energy
            by Battelle under Contract Number DE-AC05-76RL01830. Support
            for this work was provided by the Department of Energy Office
            of Biological and Environmental Research, Office of Basic
            Energy Sciences, and the Office of Advanced Scientific Computing.


           Job information
           ---------------

    hostname        = dhcp-10-22-10-180.wlan.ntnu.no
    program         = nwchem
    date            = Thu Mar 21 12:31:34 2024

    compiled        = Sun_Dec_10_10:51:21_2023
    source          = /private/tmp/nwchem-20231210-5888-3uvdjr/nwchem-7.2.2
    nwchem branch   = 7.2.2
    nwchem revision = 74936fb9
    ga revision     = 5.8.0
    use scalapack   = T
    input           = diethyletherOptimized.txt
    prefix          = molecule.
    data base       = ./molecule.db
    status          = startup
    nproc           =        4
    time left       =     -1s



           Memory information
           ------------------

    heap     =   67108860 doubles =    512.0 Mbytes
    stack    =   67108865 doubles =    512.0 Mbytes
    global   =  134217728 doubles =   1024.0 Mbytes (distinct from heap & stack)
    total    =  268435453 doubles =   2048.0 Mbytes
    verify   = yes
    hardfail = no 


           Directory information
           ---------------------

  0 permanent = .
  0 scratch   = .




                                NWChem Input Module
                                -------------------


                                   diethylether
                                   ------------

 Scaling coordinates for geometry "geometry" by  1.889725989
 (inverse scale =  0.529177249)

 C2V symmetry detected

          ------
          auto-z
          ------
  no constraints, skipping    0.0000000000000000     
  no constraints, skipping    0.0000000000000000     


                             Geometry "geometry" -> ""
                             -------------------------

 Output coordinates in angstroms (scale by  1.889725989 to convert to a.u.)

  No.       Tag          Charge          X              Y              Z
 ---- ---------------- ---------- -------------- -------------- --------------
    1 O                    8.0000     0.00000000     0.00000000    -0.23256398
    2 C                    6.0000    -1.17572811     0.00000000     0.52030876
    3 C                    6.0000     1.17572811     0.00000000     0.52030876
    4 C                    6.0000    -2.35878452     0.00000000    -0.42412162
    5 C                    6.0000     2.35878452     0.00000000    -0.42412162
    6 H                    1.0000    -1.20754240     0.88298938     1.17165772
    7 H                    1.0000    -1.20754240    -0.88298938     1.17165772
    8 H                    1.0000     1.20754240    -0.88298938     1.17165772
    9 H                    1.0000     1.20754240     0.88298938     1.17165772
   10 H                    1.0000    -3.29612084     0.00000000     0.13663380
   11 H                    1.0000    -2.33527916    -0.88415659    -1.06340807
   12 H                    1.0000    -2.33527916     0.88415659    -1.06340807
   13 H                    1.0000     3.29612084     0.00000000     0.13663380
   14 H                    1.0000     2.33527916    -0.88415659    -1.06340807
   15 H                    1.0000     2.33527916     0.88415659    -1.06340807

      Atomic Mass 
      ----------- 

      O                 15.994910
      C                 12.000000
      H                  1.007825


 Effective nuclear repulsion energy (a.u.)     190.8378039837

            Nuclear Dipole moment (a.u.) 
            ----------------------------
        X                 Y               Z
 ---------------- ---------------- ----------------
     0.0000000000     0.0000000000    -0.0000000000

      Symmetry information
      --------------------

 Group name             C2v       
 Group number             16
 Group order               4
 No. of unique centers     6

      Symmetry unique atoms

     1    2    4    6   10   11



                                Z-matrix (autoz)
                                -------- 

 Units are Angstrom for bonds and degrees for angles

      Type          Name      I     J     K     L     M      Value
      ----------- --------  ----- ----- ----- ----- ----- ----------
    1 Stretch                  1     2                       1.39612
    2 Stretch                  1     3                       1.39612
    3 Stretch                  2     4                       1.51379
    4 Stretch                  2     6                       1.09770
    5 Stretch                  2     7                       1.09770
    6 Stretch                  3     5                       1.51379
    7 Stretch                  3     8                       1.09770
    8 Stretch                  3     9                       1.09770
    9 Stretch                  4    10                       1.09227
   10 Stretch                  4    11                       1.09132
   11 Stretch                  4    12                       1.09132
   12 Stretch                  5    13                       1.09227
   13 Stretch                  5    14                       1.09132
   14 Stretch                  5    15                       1.09132
   15 Bend                     1     2     4               108.76644
   16 Bend                     1     2     6               110.14473
   17 Bend                     1     2     7               110.14473
   18 Bend                     1     3     5               108.76644
   19 Bend                     1     3     8               110.14473
   20 Bend                     1     3     9               110.14473
   21 Bend                     2     1     3               114.73339
   22 Bend                     2     4    10               110.51004
   23 Bend                     2     4    11               110.40379
   24 Bend                     2     4    12               110.40379
   25 Bend                     3     5    13               110.51004
   26 Bend                     3     5    14               110.40379
   27 Bend                     3     5    15               110.40379
   28 Bend                     4     2     6               110.33741
   29 Bend                     4     2     7               110.33741
   30 Bend                     5     3     8               110.33741
   31 Bend                     5     3     9               110.33741
   32 Bend                     6     2     7               107.10509
   33 Bend                     8     3     9               107.10509
   34 Bend                    10     4    11               108.61590
   35 Bend                    10     4    12               108.61590
   36 Bend                    11     4    12               108.22587
   37 Bend                    13     5    14               108.61590
   38 Bend                    13     5    15               108.61590
   39 Bend                    14     5    15               108.22587
   40 Torsion                  1     2     4    10         180.00000
   41 Torsion                  1     2     4    11          59.81516
   42 Torsion                  1     2     4    12         -59.81516
   43 Torsion                  1     3     5    13         180.00000
   44 Torsion                  1     3     5    14         -59.81516
   45 Torsion                  1     3     5    15          59.81516
   46 Torsion                  2     1     3     5         180.00000
   47 Torsion                  2     1     3     8          58.96108
   48 Torsion                  2     1     3     9         -58.96108
   49 Torsion                  3     1     2     4         180.00000
   50 Torsion                  3     1     2     6          58.96108
   51 Torsion                  3     1     2     7         -58.96108
   52 Torsion                  6     2     4    10         -59.07942
   53 Torsion                  6     2     4    11        -179.26426
   54 Torsion                  6     2     4    12          61.10542
   55 Torsion                  7     2     4    10          59.07942
   56 Torsion                  7     2     4    11         -61.10542
   57 Torsion                  7     2     4    12         179.26426
   58 Torsion                  8     3     5    13         -59.07942
   59 Torsion                  8     3     5    14          61.10542
   60 Torsion                  8     3     5    15        -179.26426
   61 Torsion                  9     3     5    13          59.07942
   62 Torsion                  9     3     5    14         179.26426
   63 Torsion                  9     3     5    15         -61.10542


            XYZ format geometry
            -------------------
    15
 geometry
 O                     0.00000000     0.00000000    -0.23256398
 C                    -1.17572811     0.00000000     0.52030876
 C                     1.17572811     0.00000000     0.52030876
 C                    -2.35878452     0.00000000    -0.42412162
 C                     2.35878452     0.00000000    -0.42412162
 H                    -1.20754240     0.88298938     1.17165772
 H                    -1.20754240    -0.88298938     1.17165772
 H                     1.20754240    -0.88298938     1.17165772
 H                     1.20754240     0.88298938     1.17165772
 H                    -3.29612084     0.00000000     0.13663380
 H                    -2.33527916    -0.88415659    -1.06340807
 H                    -2.33527916     0.88415659    -1.06340807
 H                     3.29612084     0.00000000     0.13663380
 H                     2.33527916    -0.88415659    -1.06340807
 H                     2.33527916     0.88415659    -1.06340807

 ==============================================================================
                                internuclear distances
 ------------------------------------------------------------------------------
       center one      |      center two      | atomic units |  angstroms
 ------------------------------------------------------------------------------
    2 C                |   1 O                |     2.63829  |     1.39612
    3 C                |   1 O                |     2.63829  |     1.39612
    4 C                |   2 C                |     2.86066  |     1.51379
    5 C                |   3 C                |     2.86066  |     1.51379
    6 H                |   2 C                |     2.07435  |     1.09770
    7 H                |   2 C                |     2.07435  |     1.09770
    8 H                |   3 C                |     2.07435  |     1.09770
    9 H                |   3 C                |     2.07435  |     1.09770
   10 H                |   4 C                |     2.06408  |     1.09227
   11 H                |   4 C                |     2.06229  |     1.09132
   12 H                |   4 C                |     2.06229  |     1.09132
   13 H                |   5 C                |     2.06408  |     1.09227
   14 H                |   5 C                |     2.06229  |     1.09132
   15 H                |   5 C                |     2.06229  |     1.09132
 ------------------------------------------------------------------------------
                         number of included internuclear distances:         14
 ==============================================================================



 ==============================================================================
                                 internuclear angles
 ------------------------------------------------------------------------------
        center 1       |       center 2       |       center 3       |  degrees
 ------------------------------------------------------------------------------
    2 C                |   1 O                |   3 C                |   114.73
    1 O                |   2 C                |   4 C                |   108.77
    1 O                |   2 C                |   6 H                |   110.14
    1 O                |   2 C                |   7 H                |   110.14
    4 C                |   2 C                |   6 H                |   110.34
    4 C                |   2 C                |   7 H                |   110.34
    6 H                |   2 C                |   7 H                |   107.11
    1 O                |   3 C                |   5 C                |   108.77
    1 O                |   3 C                |   8 H                |   110.14
    1 O                |   3 C                |   9 H                |   110.14
    5 C                |   3 C                |   8 H                |   110.34
    5 C                |   3 C                |   9 H                |   110.34
    8 H                |   3 C                |   9 H                |   107.11
    2 C                |   4 C                |  10 H                |   110.51
    2 C                |   4 C                |  11 H                |   110.40
    2 C                |   4 C                |  12 H                |   110.40
   10 H                |   4 C                |  11 H                |   108.62
   10 H                |   4 C                |  12 H                |   108.62
   11 H                |   4 C                |  12 H                |   108.23
    3 C                |   5 C                |  13 H                |   110.51
    3 C                |   5 C                |  14 H                |   110.40
    3 C                |   5 C                |  15 H                |   110.40
   13 H                |   5 C                |  14 H                |   108.62
   13 H                |   5 C                |  15 H                |   108.62
   14 H                |   5 C                |  15 H                |   108.23
 ------------------------------------------------------------------------------
                            number of included internuclear angles:         25
 ==============================================================================



  library name resolved from: .nwchemrc
  library file name is: </opt/homebrew/Cellar/nwchem/7.2.2/share/nwchem/libraries/>
  


 Summary of "ao basis" -> "" (spherical)
 ------------------------------------------------------------------------------
       Tag                 Description            Shells   Functions and Types
 ---------------- ------------------------------  ------  ---------------------
 *                           6-311G                   on all atoms 


                      Basis "ao basis" -> "ao basis" (spherical)
                      -----
  O (Oxygen)
  ----------
            Exponent  Coefficients 
       -------------- ---------------------------------------------------------
  1 S  8.58850000E+03  0.001895
  1 S  1.29723000E+03  0.014386
  1 S  2.99296000E+02  0.070732
  1 S  8.73771000E+01  0.240001
  1 S  2.56789000E+01  0.594797
  1 S  3.74004000E+00  0.280802

  2 S  4.21175000E+01  0.113889
  2 S  9.62837000E+00  0.920811
  2 S  2.85332000E+00 -0.003274

  3 P  4.21175000E+01  0.036511
  3 P  9.62837000E+00  0.237153
  3 P  2.85332000E+00  0.819702

  4 S  9.05661000E-01  1.000000

  5 P  9.05661000E-01  1.000000

  6 S  2.55611000E-01  1.000000

  7 P  2.55611000E-01  1.000000

  C (Carbon)
  ----------
            Exponent  Coefficients 
       -------------- ---------------------------------------------------------
  1 S  4.56324000E+03  0.001967
  1 S  6.82024000E+02  0.015231
  1 S  1.54973000E+02  0.076127
  1 S  4.44553000E+01  0.260801
  1 S  1.30290000E+01  0.616462
  1 S  1.82773000E+00  0.221006

  2 S  2.09642000E+01  0.114660
  2 S  4.80331000E+00  0.919999
  2 S  1.45933000E+00 -0.003031

  3 P  2.09642000E+01  0.040249
  3 P  4.80331000E+00  0.237594
  3 P  1.45933000E+00  0.815854

  4 S  4.83456000E-01  1.000000

  5 P  4.83456000E-01  1.000000

  6 S  1.45585000E-01  1.000000

  7 P  1.45585000E-01  1.000000

  H (Hydrogen)
  ------------
            Exponent  Coefficients 
       -------------- ---------------------------------------------------------
  1 S  3.38650000E+01  0.025494
  1 S  5.09479000E+00  0.190373
  1 S  1.15879000E+00  0.852161

  2 S  3.25840000E-01  1.000000

  3 S  1.02741000E-01  1.000000



 Summary of "ao basis" -> "ao basis" (spherical)
 ------------------------------------------------------------------------------
       Tag                 Description            Shells   Functions and Types
 ---------------- ------------------------------  ------  ---------------------
 O                           6-311G                  7       13   4s3p
 C                           6-311G                  7       13   4s3p
 H                           6-311G                  3        3   3s


                                 NWChem SCF Module
                                 -----------------


                                   diethylether



  ao basis        = "ao basis"
  functions       =    95
  atoms           =    15
  closed shells   =    21
  open shells     =     0
  charge          =   0.00
  wavefunction    = RHF 
  input vectors   = atomic
  output vectors  = ./molecule.movecs
  use symmetry    = T
  symmetry adapt  = T


 Summary of "ao basis" -> "ao basis" (spherical)
 ------------------------------------------------------------------------------
       Tag                 Description            Shells   Functions and Types
 ---------------- ------------------------------  ------  ---------------------
 O                           6-311G                  7       13   4s3p
 C                           6-311G                  7       13   4s3p
 H                           6-311G                  3        3   3s


      Symmetry analysis of basis
      --------------------------

        a1         36
        a2         12
        b1         32
        b2         15


 Forming initial guess at       0.1s


      Superposition of Atomic Density Guess
      -------------------------------------

 Sum of atomic energies:        -230.44842806

      Non-variational initial energy
      ------------------------------

 Total energy =    -233.783501
 1-e energy   =    -688.025773
 2-e energy   =     263.404467
 HOMO         =      -0.326961
 LUMO         =       0.090986


      Symmetry analysis of molecular orbitals - initial
      -------------------------------------------------

  Numbering of irreducible representations: 

     1 a1          2 a2          3 b1          4 b2      

  Orbital symmetries:

     1 a1          2 b1          3 a1          4 a1          5 b1      
     6 a1          7 b1          8 a1          9 b1         10 a1      
    11 b1         12 b2         13 a1         14 a2         15 a1      
    16 b2         17 b1         18 b1         19 a1         20 a2      
    21 b2         22 a1         23 b1         24 a1         25 b2      
    26 a1         27 b1         28 a2         29 a1         30 b1      
    31 b2      


 Starting SCF solution at       0.2s



 ----------------------------------------------
         Quadratically convergent ROHF

 Convergence threshold     :          1.000E-04
 Maximum no. of iterations :           30
 Final Fock-matrix accuracy:          1.000E-07
 ----------------------------------------------


 Integral file          = ./molecule.aoints.0
 Record size in doubles =  65536        No. of integs per rec  =  43688
 Max. records in memory =     29        Max. records in file   = 155284
 No. of bits per label  =      8        No. of bits per value  =     64


 #quartets = 4.927D+05 #integrals = 1.915D+06 #direct =  0.0% #cached =100.0%


File balance: exchanges=     3  moved=     7  time=   0.0


              iter       energy          gnorm     gmax       time
             ----- ------------------- --------- --------- --------
                 1     -232.0343183344  8.83D-01  2.06D-01      0.4
                 2     -232.0858653967  3.95D-01  9.92D-02      0.4
                 3     -232.0941834011  2.01D-02  4.70D-03      0.5
                 4     -232.0942246430  9.75D-05  2.72D-05      0.5


       Final RHF  results 
       ------------------ 

         Total SCF energy =   -232.094224643019
      One-electron energy =   -692.534762542024
      Two-electron energy =    269.602733915307
 Nuclear repulsion energy =    190.837803983699

        Time for solution =      0.3s



       Symmetry analysis of molecular orbitals - final
       -----------------------------------------------

  Numbering of irreducible representations: 

     1 a1          2 a2          3 b1          4 b2      

  Orbital symmetries:

     1 a1          2 b1          3 a1          4 b1          5 a1      
     6 a1          7 b1          8 a1          9 b1         10 a1      
    11 b2         12 b1         13 a2         14 a1         15 a1      
    16 b2         17 b1         18 b1         19 a2         20 a1      
    21 b2         22 a1         23 b1         24 a1         25 b2      
    26 a1         27 b1         28 a2         29 b1         30 b2      
    31 a2      

             Final eigenvalues
             -----------------

              1      
    1  -20.5472
    2  -11.2798
    3  -11.2798
    4  -11.2164
    5  -11.2164
    6   -1.3905
    7   -1.0519
    8   -0.9870
    9   -0.8505
   10   -0.8294
   11   -0.6833
   12   -0.6692
   13   -0.6088
   14   -0.6009
   15   -0.5480
   16   -0.5289
   17   -0.5204
   18   -0.4950
   19   -0.4865
   20   -0.4621
   21   -0.4127
   22    0.1566
   23    0.1728
   24    0.1883
   25    0.1938
   26    0.2279
   27    0.2286
   28    0.2362
   29    0.2545
   30    0.2568
   31    0.2746

                       ROHF Final Molecular Orbital Analysis
                       -------------------------------------

 Vector    6  Occ=2.000000D+00  E=-1.390474D+00  Symmetry=a1
              MO Center=  5.0D-17, -7.9D-18, -3.7D-03, r^2= 7.0D-01
   Bfn.  Coefficient  Atom+Function         Bfn.  Coefficient  Atom+Function  
  ----- ------------  ---------------      ----- ------------  ---------------
     6      0.490390   1 O  s                10      0.454484   1 O  s         
     2     -0.175940   1 O  s                19      0.160236   2 C  s         
    32      0.160236   3 C  s         

 Vector    7  Occ=2.000000D+00  E=-1.051939D+00  Symmetry=b1
              MO Center=  5.7D-17, -2.5D-16,  6.2D-02, r^2= 4.0D+00
   Bfn.  Coefficient  Atom+Function         Bfn.  Coefficient  Atom+Function  
  ----- ------------  ---------------      ----- ------------  ---------------
    19      0.262715   2 C  s                32     -0.262715   3 C  s         
    45      0.223087   4 C  s                58     -0.223087   5 C  s         
    23      0.182436   2 C  s                36     -0.182436   3 C  s         

 Vector    8  Occ=2.000000D+00  E=-9.869969D-01  Symmetry=a1
              MO Center= -5.9D-18,  3.0D-18, -1.4D-01, r^2= 5.7D+00
   Bfn.  Coefficient  Atom+Function         Bfn.  Coefficient  Atom+Function  
  ----- ------------  ---------------      ----- ------------  ---------------
    45      0.282140   4 C  s                58      0.282140   5 C  s         
    49      0.220459   4 C  s                62      0.220459   5 C  s         
    10     -0.199646   1 O  s                19      0.155069   2 C  s         
    32      0.155069   3 C  s                 6     -0.150710   1 O  s         

 Vector    9  Occ=2.000000D+00  E=-8.504500D-01  Symmetry=b1
              MO Center=  3.3D-17, -7.0D-18, -1.1D-01, r^2= 5.6D+00
   Bfn.  Coefficient  Atom+Function         Bfn.  Coefficient  Atom+Function  
  ----- ------------  ---------------      ----- ------------  ---------------
    49      0.274555   4 C  s                62     -0.274555   5 C  s         
    23     -0.235596   2 C  s                36      0.235596   3 C  s         
    45      0.221859   4 C  s                58     -0.221859   5 C  s         
    19     -0.201077   2 C  s                32      0.201077   3 C  s         

 Vector   10  Occ=2.000000D+00  E=-8.294407D-01  Symmetry=a1
              MO Center=  1.3D-16,  1.7D-17,  3.8D-01, r^2= 3.8D+00
   Bfn.  Coefficient  Atom+Function         Bfn.  Coefficient  Atom+Function  
  ----- ------------  ---------------      ----- ------------  ---------------
    10      0.251824   1 O  s                23     -0.234191   2 C  s         
    36     -0.234191   3 C  s                19     -0.214228   2 C  s         
    32     -0.214228   3 C  s                 6      0.177855   1 O  s         
    49      0.152116   4 C  s                62      0.152116   5 C  s         

 Vector   11  Occ=2.000000D+00  E=-6.832601D-01  Symmetry=b2
              MO Center= -5.8D-17,  1.2D-17,  3.0D-01, r^2= 2.7D+00
   Bfn.  Coefficient  Atom+Function         Bfn.  Coefficient  Atom+Function  
  ----- ------------  ---------------      ----- ------------  ---------------
     8      0.226135   1 O  py               21      0.185231   2 C  py        
    34      0.185231   3 C  py               12      0.177536   1 O  py        

 Vector   12  Occ=2.000000D+00  E=-6.691862D-01  Symmetry=b1
              MO Center=  8.4D-18,  2.4D-19,  3.2D-01, r^2= 3.2D+00
   Bfn.  Coefficient  Atom+Function         Bfn.  Coefficient  Atom+Function  
  ----- ------------  ---------------      ----- ------------  ---------------
     7      0.248101   1 O  px               11      0.193494   1 O  px        
    22      0.171900   2 C  pz               35     -0.171900   3 C  pz        

 Vector   13  Occ=2.000000D+00  E=-6.087700D-01  Symmetry=a2
              MO Center= -1.0D-16, -6.1D-18,  1.0D-01, r^2= 5.0D+00
   Bfn.  Coefficient  Atom+Function         Bfn.  Coefficient  Atom+Function  
  ----- ------------  ---------------      ----- ------------  ---------------
    21      0.177920   2 C  py               34     -0.177920   3 C  py        
    47      0.158069   4 C  py               60     -0.158069   5 C  py        

 Vector   14  Occ=2.000000D+00  E=-6.008941D-01  Symmetry=a1
              MO Center=  1.6D-16, -2.0D-18, -1.6D-01, r^2= 4.2D+00
   Bfn.  Coefficient  Atom+Function         Bfn.  Coefficient  Atom+Function  
  ----- ------------  ---------------      ----- ------------  ---------------
     9      0.231258   1 O  pz               13      0.217184   1 O  pz        
    23     -0.160970   2 C  s                36     -0.160970   3 C  s         
    20      0.155063   2 C  px               33     -0.155063   3 C  px        

 Vector   15  Occ=2.000000D+00  E=-5.479772D-01  Symmetry=a1
              MO Center=  1.7D-16,  7.8D-18, -3.4D-01, r^2= 7.9D+00
   Bfn.  Coefficient  Atom+Function         Bfn.  Coefficient  Atom+Function  
  ----- ------------  ---------------      ----- ------------  ---------------
    79      0.184245  10 H  s                88      0.184245  13 H  s         
    48      0.172920   4 C  pz               61      0.172920   5 C  pz        
    10      0.157499   1 O  s         

 Vector   16  Occ=2.000000D+00  E=-5.289405D-01  Symmetry=b2
              MO Center=  1.2D-15,  1.6D-17, -6.1D-01, r^2= 6.0D+00
   Bfn.  Coefficient  Atom+Function         Bfn.  Coefficient  Atom+Function  
  ----- ------------  ---------------      ----- ------------  ---------------
    47      0.211801   4 C  py               60      0.211801   5 C  py        
     8     -0.166953   1 O  py               51      0.160063   4 C  py        
    64      0.160063   5 C  py               12     -0.158599   1 O  py        

 Vector   17  Occ=2.000000D+00  E=-5.204156D-01  Symmetry=b1
              MO Center=  2.3D-16, -6.6D-18, -2.2D-01, r^2= 7.1D+00
   Bfn.  Coefficient  Atom+Function         Bfn.  Coefficient  Atom+Function  
  ----- ------------  ---------------      ----- ------------  ---------------
    48      0.189607   4 C  pz               61     -0.189607   5 C  pz        
    79      0.159607  10 H  s                88     -0.159607  13 H  s         

 Vector   18  Occ=2.000000D+00  E=-4.949657D-01  Symmetry=b1
              MO Center= -1.7D-16,  3.3D-18,  2.6D-02, r^2= 5.0D+00
   Bfn.  Coefficient  Atom+Function         Bfn.  Coefficient  Atom+Function  
  ----- ------------  ---------------      ----- ------------  ---------------
    20      0.200066   2 C  px               33      0.200066   3 C  px        
    46     -0.197661   4 C  px               59     -0.197661   5 C  px        

 Vector   19  Occ=2.000000D+00  E=-4.864745D-01  Symmetry=a2
              MO Center= -1.9D-15,  1.1D-16,  1.4D-03, r^2= 5.6D+00
   Bfn.  Coefficient  Atom+Function         Bfn.  Coefficient  Atom+Function  
  ----- ------------  ---------------      ----- ------------  ---------------
    21      0.167312   2 C  py               34     -0.167312   3 C  py        
    47     -0.166649   4 C  py               60      0.166649   5 C  py        

 Vector   20  Occ=2.000000D+00  E=-4.621068D-01  Symmetry=a1
              MO Center=  1.4D-16, -4.2D-18,  1.7D-02, r^2= 2.8D+00
   Bfn.  Coefficient  Atom+Function         Bfn.  Coefficient  Atom+Function  
  ----- ------------  ---------------      ----- ------------  ---------------
    13      0.343600   1 O  pz                9      0.297829   1 O  pz        
     5      0.194798   1 O  pz               22     -0.173109   2 C  pz        
    35     -0.173109   3 C  pz        

 Vector   21  Occ=2.000000D+00  E=-4.127169D-01  Symmetry=b2
              MO Center=  3.0D-16, -8.5D-18,  2.7D-01, r^2= 2.3D+00
   Bfn.  Coefficient  Atom+Function         Bfn.  Coefficient  Atom+Function  
  ----- ------------  ---------------      ----- ------------  ---------------
    12      0.404640   1 O  py                8      0.352253   1 O  py        
     4      0.232020   1 O  py               67     -0.173877   6 H  s         
    70      0.173877   7 H  s                73      0.173877   8 H  s         
    76     -0.173877   9 H  s         

 Vector   22  Occ=0.000000D+00  E= 1.565926D-01  Symmetry=a1
              MO Center=  1.5D-15,  4.2D-17,  8.8D-01, r^2= 8.7D+00
   Bfn.  Coefficient  Atom+Function         Bfn.  Coefficient  Atom+Function  
  ----- ------------  ---------------      ----- ------------  ---------------
    23      1.046420   2 C  s                36      1.046420   3 C  s         
    49      0.736356   4 C  s                62      0.736356   5 C  s         
    68     -0.672949   6 H  s                71     -0.672949   7 H  s         
    74     -0.672949   8 H  s                77     -0.672949   9 H  s         
    80     -0.430626  10 H  s                89     -0.430626  13 H  s         

 Vector   23  Occ=0.000000D+00  E= 1.728270D-01  Symmetry=b1
              MO Center= -9.9D-16, -8.9D-18,  2.4D-01, r^2= 1.3D+01
   Bfn.  Coefficient  Atom+Function         Bfn.  Coefficient  Atom+Function  
  ----- ------------  ---------------      ----- ------------  ---------------
    49      1.170147   4 C  s                62     -1.170147   5 C  s         
    80     -0.854568  10 H  s                89      0.854568  13 H  s         
    23      0.686986   2 C  s                36     -0.686986   3 C  s         
    68     -0.456033   6 H  s                71     -0.456033   7 H  s         
    74      0.456033   8 H  s                77      0.456033   9 H  s         

 Vector   24  Occ=0.000000D+00  E= 1.882962D-01  Symmetry=a1
              MO Center=  4.2D-15, -1.4D-16, -2.9D-01, r^2= 1.2D+01
   Bfn.  Coefficient  Atom+Function         Bfn.  Coefficient  Atom+Function  
  ----- ------------  ---------------      ----- ------------  ---------------
    49      1.314482   4 C  s                62      1.314482   5 C  s         
    23     -0.774487   2 C  s                36     -0.774487   3 C  s         
    83     -0.709145  11 H  s                86     -0.709145  12 H  s         
    92     -0.709145  14 H  s                95     -0.709145  15 H  s         
    68      0.523786   6 H  s                71      0.523786   7 H  s         

 Vector   25  Occ=0.000000D+00  E= 1.938352D-01  Symmetry=b2
              MO Center= -2.9D-16,  3.1D-16,  5.4D-01, r^2= 9.1D+00
   Bfn.  Coefficient  Atom+Function         Bfn.  Coefficient  Atom+Function  
  ----- ------------  ---------------      ----- ------------  ---------------
    68      0.929957   6 H  s                71     -0.929957   7 H  s         
    74     -0.929957   8 H  s                77      0.929957   9 H  s         
    83     -0.686147  11 H  s                86      0.686147  12 H  s         
    92     -0.686147  14 H  s                95      0.686147  15 H  s         
    25     -0.615340   2 C  py               38     -0.615340   3 C  py        

 Vector   26  Occ=0.000000D+00  E= 2.279335D-01  Symmetry=a1
              MO Center=  6.7D-16,  3.3D-16, -2.5D-02, r^2= 1.5D+01
   Bfn.  Coefficient  Atom+Function         Bfn.  Coefficient  Atom+Function  
  ----- ------------  ---------------      ----- ------------  ---------------
    80      1.586125  10 H  s                89      1.586125  13 H  s         
    52     -0.710098   4 C  pz               65     -0.710098   5 C  pz        
    83     -0.705852  11 H  s                86     -0.705852  12 H  s         
    92     -0.705852  14 H  s                95     -0.705852  15 H  s         
    50      0.546108   4 C  px               63     -0.546108   5 C  px        

 Vector   27  Occ=0.000000D+00  E= 2.285984D-01  Symmetry=b1
              MO Center=  2.8D-15, -2.3D-17, -4.7D-01, r^2= 1.2D+01
   Bfn.  Coefficient  Atom+Function         Bfn.  Coefficient  Atom+Function  
  ----- ------------  ---------------      ----- ------------  ---------------
    83      0.940460  11 H  s                86      0.940460  12 H  s         
    92     -0.940460  14 H  s                95     -0.940460  15 H  s         
    23      0.846228   2 C  s                36     -0.846228   3 C  s         
    49     -0.824988   4 C  s                62      0.824988   5 C  s         
    68     -0.635831   6 H  s                71     -0.635831   7 H  s         

 Vector   28  Occ=0.000000D+00  E= 2.361921D-01  Symmetry=a2
              MO Center= -1.3D-15, -1.3D-15, -2.5D-01, r^2= 1.1D+01
   Bfn.  Coefficient  Atom+Function         Bfn.  Coefficient  Atom+Function  
  ----- ------------  ---------------      ----- ------------  ---------------
    83     -0.993081  11 H  s                86      0.993081  12 H  s         
    92      0.993081  14 H  s                95     -0.993081  15 H  s         
    68      0.937406   6 H  s                71     -0.937406   7 H  s         
    74      0.937406   8 H  s                77     -0.937406   9 H  s         
    25     -0.566629   2 C  py               38      0.566629   3 C  py        

 Vector   29  Occ=0.000000D+00  E= 2.544700D-01  Symmetry=b1
              MO Center= -5.1D-16,  1.0D-15,  7.3D-01, r^2= 1.3D+01
   Bfn.  Coefficient  Atom+Function         Bfn.  Coefficient  Atom+Function  
  ----- ------------  ---------------      ----- ------------  ---------------
    80      1.396133  10 H  s                89     -1.396133  13 H  s         
    23      1.214572   2 C  s                36     -1.214572   3 C  s         
    68     -0.883690   6 H  s                71     -0.883690   7 H  s         
    74      0.883690   8 H  s                77      0.883690   9 H  s         
    52     -0.550061   4 C  pz               65      0.550061   5 C  pz        

 Vector   30  Occ=0.000000D+00  E= 2.568068D-01  Symmetry=b2
              MO Center=  2.3D-14,  1.4D-14, -4.2D-01, r^2= 1.1D+01
   Bfn.  Coefficient  Atom+Function         Bfn.  Coefficient  Atom+Function  
  ----- ------------  ---------------      ----- ------------  ---------------
    83      1.175436  11 H  s                86     -1.175436  12 H  s         
    92      1.175436  14 H  s                95     -1.175436  15 H  s         
    51      0.853091   4 C  py               64      0.853091   5 C  py        
    68      0.799374   6 H  s                71     -0.799374   7 H  s         
    74     -0.799374   8 H  s                77      0.799374   9 H  s         

 Vector   31  Occ=0.000000D+00  E= 2.746332D-01  Symmetry=a2
              MO Center= -2.2D-14,  2.4D-16,  2.8D-01, r^2= 1.0D+01
   Bfn.  Coefficient  Atom+Function         Bfn.  Coefficient  Atom+Function  
  ----- ------------  ---------------      ----- ------------  ---------------
    68      1.284414   6 H  s                71     -1.284414   7 H  s         
    74      1.284414   8 H  s                77     -1.284414   9 H  s         
    83      0.948650  11 H  s                86     -0.948650  12 H  s         
    92     -0.948650  14 H  s                95      0.948650  15 H  s         
    25     -0.867735   2 C  py               38      0.867735   3 C  py        

 Vector   32  Occ=0.000000D+00  E= 3.053469D-01  Symmetry=a1
              MO Center= -1.1D-15, -9.7D-15,  5.8D-01, r^2= 4.5D+00
   Bfn.  Coefficient  Atom+Function         Bfn.  Coefficient  Atom+Function  
  ----- ------------  ---------------      ----- ------------  ---------------
    10      1.569927   1 O  s                24     -0.990760   2 C  px        
    37      0.990760   3 C  px               13      0.481743   1 O  pz        
    26      0.351330   2 C  pz               39      0.351330   3 C  pz        
    49     -0.296531   4 C  s                62     -0.296531   5 C  s         
    23     -0.263285   2 C  s                36     -0.263285   3 C  s         

 Vector   33  Occ=0.000000D+00  E= 3.581609D-01  Symmetry=a1
              MO Center= -1.1D-15, -4.1D-15, -1.5D-02, r^2= 7.2D+00
   Bfn.  Coefficient  Atom+Function         Bfn.  Coefficient  Atom+Function  
  ----- ------------  ---------------      ----- ------------  ---------------
    23      1.620797   2 C  s                36      1.620797   3 C  s         
    50     -1.436619   4 C  px               63      1.436619   5 C  px        
    26     -1.362079   2 C  pz               39     -1.362079   3 C  pz        
    49     -1.271768   4 C  s                62     -1.271768   5 C  s         
    52     -0.714228   4 C  pz               65     -0.714228   5 C  pz        

 Vector   34  Occ=0.000000D+00  E= 4.039408D-01  Symmetry=b1
              MO Center= -5.8D-15,  4.8D-17,  7.9D-02, r^2= 7.1D+00
   Bfn.  Coefficient  Atom+Function         Bfn.  Coefficient  Atom+Function  
  ----- ------------  ---------------      ----- ------------  ---------------
    24      1.698250   2 C  px               37      1.698250   3 C  px        
    52      1.167385   4 C  pz               65     -1.167385   5 C  pz        
    11      0.862652   1 O  px               49      0.674053   4 C  s         
    62     -0.674053   5 C  s                50      0.594451   4 C  px        
    63      0.594451   5 C  px               23     -0.458907   2 C  s         

 Vector   35  Occ=0.000000D+00  E= 4.125062D-01  Symmetry=b1
              MO Center=  7.0D-15,  2.4D-16, -1.8D-01, r^2= 8.0D+00
   Bfn.  Coefficient  Atom+Function         Bfn.  Coefficient  Atom+Function  
  ----- ------------  ---------------      ----- ------------  ---------------
    26     -1.782301   2 C  pz               39      1.782301   3 C  pz        
    23      1.634517   2 C  s                36     -1.634517   3 C  s         
    50     -1.589436   4 C  px               63     -1.589436   5 C  px        
    49     -1.105497   4 C  s                62      1.105497   5 C  s         
    11      0.872828   1 O  px               52     -0.456326   4 C  pz        

 Vector   36  Occ=0.000000D+00  E= 4.533881D-01  Symmetry=a1
              MO Center= -1.2D-15, -2.3D-16, -2.3D-01, r^2= 8.5D+00
   Bfn.  Coefficient  Atom+Function         Bfn.  Coefficient  Atom+Function  
  ----- ------------  ---------------      ----- ------------  ---------------
    52      1.231983   4 C  pz               65      1.231983   5 C  pz        
    26     -0.847284   2 C  pz               39     -0.847284   3 C  pz        
    23     -0.553118   2 C  s                36     -0.553118   3 C  s         
    82      0.515157  11 H  s                85      0.515157  12 H  s         
    91      0.515157  14 H  s                94      0.515157  15 H  s         

 Vector   37  Occ=0.000000D+00  E= 4.581861D-01  Symmetry=b2
              MO Center=  6.9D-16,  2.1D-16, -2.1D-01, r^2= 9.1D+00
   Bfn.  Coefficient  Atom+Function         Bfn.  Coefficient  Atom+Function  
  ----- ------------  ---------------      ----- ------------  ---------------
    51      1.206012   4 C  py               64      1.206012   5 C  py        
    82      0.821546  11 H  s                85     -0.821546  12 H  s         
    91      0.821546  14 H  s                94     -0.821546  15 H  s         
    25     -0.312291   2 C  py               38     -0.312291   3 C  py        

 Vector   38  Occ=0.000000D+00  E= 4.702851D-01  Symmetry=a2
              MO Center= -1.0D-15, -1.7D-16, -5.1D-02, r^2= 7.7D+00
   Bfn.  Coefficient  Atom+Function         Bfn.  Coefficient  Atom+Function  
  ----- ------------  ---------------      ----- ------------  ---------------
    51      0.837960   4 C  py               64     -0.837960   5 C  py        
    82      0.707892  11 H  s                85     -0.707892  12 H  s         
    91     -0.707892  14 H  s                94      0.707892  15 H  s         
    67     -0.374239   6 H  s                70      0.374239   7 H  s         
    73     -0.374239   8 H  s                76      0.374239   9 H  s         

 Vector   39  Occ=0.000000D+00  E= 4.984093D-01  Symmetry=b1
              MO Center= -1.2D-15, -1.2D-16, -4.2D-01, r^2= 8.0D+00
   Bfn.  Coefficient  Atom+Function         Bfn.  Coefficient  Atom+Function  
  ----- ------------  ---------------      ----- ------------  ---------------
    52      0.946005   4 C  pz               65     -0.946005   5 C  pz        
    79     -0.850168  10 H  s                88      0.850168  13 H  s         
    82      0.528113  11 H  s                85      0.528113  12 H  s         
    91     -0.528113  14 H  s                94     -0.528113  15 H  s         
    50     -0.475924   4 C  px               63     -0.475924   5 C  px        

 Vector   40  Occ=0.000000D+00  E= 5.407219D-01  Symmetry=a1
              MO Center= -2.9D-15, -4.9D-16, -4.1D-02, r^2= 8.1D+00
   Bfn.  Coefficient  Atom+Function         Bfn.  Coefficient  Atom+Function  
  ----- ------------  ---------------      ----- ------------  ---------------
    79      0.995812  10 H  s                88      0.995812  13 H  s         
    24     -0.851393   2 C  px               37      0.851393   3 C  px        
    49     -0.839075   4 C  s                62     -0.839075   5 C  s         
    50      0.811866   4 C  px               63     -0.811866   5 C  px        
    10      0.557660   1 O  s                52     -0.462497   4 C  pz        


 center of mass
 --------------
 x =  -0.00000000 y =   0.00000000 z =  -0.01784680

 moments of inertia (a.u.)
 ------------------
         100.339244215766           0.000000000000           0.000000000000
           0.000000000000         850.892250784291           0.000000000000
           0.000000000000           0.000000000000         795.509023781260

  Mulliken analysis of the total density
  --------------------------------------

    Atom       Charge   Shell Charges
 -----------   ------   -------------------------------------------------------
    1 O    8     8.62   1.08  0.91  0.93  0.97  2.15  0.95  1.62
    2 C    6     5.99   1.10  0.89  0.57  0.76  1.59  0.56  0.51
    3 C    6     5.99   1.10  0.89  0.57  0.76  1.59  0.56  0.51
    4 C    6     6.50   1.10  0.89  0.59  0.74  1.67  0.70  0.80
    5 C    6     6.50   1.10  0.89  0.59  0.74  1.67  0.70  0.80
    6 H    1     0.86   0.28  0.50  0.08
    7 H    1     0.86   0.28  0.50  0.08
    8 H    1     0.86   0.28  0.50  0.08
    9 H    1     0.86   0.28  0.50  0.08
   10 H    1     0.84   0.27  0.48  0.09
   11 H    1     0.82   0.27  0.47  0.08
   12 H    1     0.82   0.27  0.47  0.08
   13 H    1     0.84   0.27  0.48  0.09
   14 H    1     0.82   0.27  0.47  0.08
   15 H    1     0.82   0.27  0.47  0.08

       Multipole analysis of the density wrt the origin
       ------------------------------------------------

     L   x y z        total         open         nuclear
     -   - - -        -----         ----         -------
     0   0 0 0     -0.000000      0.000000     42.000000

     1   1 0 0     -0.000000      0.000000      0.000000
     1   0 1 0      0.000000      0.000000      0.000000
     1   0 0 1      0.605097      0.000000     -0.000000

     2   2 0 0    -22.992062      0.000000    473.987319
     2   1 1 0      0.000000      0.000000      0.000000
     2   1 0 1     -0.000000      0.000000      0.000000
     2   0 2 0    -24.858959      0.000000     22.303484
     2   0 1 1      0.000000      0.000000      0.000000
     2   0 0 2    -25.347250      0.000000     56.750297


 Parallel integral file used      46 records with       0 large values


 Task  times  cpu:        0.5s     wall:        0.5s


                                NWChem Input Module
                                -------------------


 Summary of allocated global arrays
-----------------------------------
  No active global arrays


MA_summarize_allocated_blocks: starting scan ...
MA_summarize_allocated_blocks: scan completed: 0 heap blocks, 0 stack blocks
MA usage statistics:

	allocation statistics:
					      heap	     stack
					      ----	     -----
	current number of blocks	         0	         0
	maximum number of blocks	        18	        14
	current total bytes		         0	         0
	maximum total bytes		  15424008	  22511656
	maximum total K-bytes		     15425	     22512
	maximum total M-bytes		        16	        23


                                     CITATION
                                     --------
                Please cite the following reference when publishing
                           results obtained with NWChem:

          E. Apra, E. J. Bylaska, W. A. de Jong, N. Govind, K. Kowalski,
       T. P. Straatsma, M. Valiev, H. J. J. van Dam, Y. Alexeev, J. Anchell,
       V. Anisimov, F. W. Aquino, R. Atta-Fynn, J. Autschbach, N. P. Bauman,
     J. C. Becca, D. E. Bernholdt, K. Bhaskaran-Nair, S. Bogatko, P. Borowski,
         J. Boschen, J. Brabec, A. Bruner, E. Cauet, Y. Chen, G. N. Chuev,
      C. J. Cramer, J. Daily, M. J. O. Deegan, T. H. Dunning Jr., M. Dupuis,
   K. G. Dyall, G. I. Fann, S. A. Fischer, A. Fonari, H. Fruchtl, L. Gagliardi,
      J. Garza, N. Gawande, S. Ghosh, K. Glaesemann, A. W. Gotz, J. Hammond,
       V. Helms, E. D. Hermes, K. Hirao, S. Hirata, M. Jacquelin, L. Jensen,
   B. G. Johnson, H. Jonsson, R. A. Kendall, M. Klemm, R. Kobayashi, V. Konkov,
      S. Krishnamoorthy, M. Krishnan, Z. Lin, R. D. Lins, R. J. Littlefield,
      A. J. Logsdail, K. Lopata, W. Ma, A. V. Marenich, J. Martin del Campo,
   D. Mejia-Rodriguez, J. E. Moore, J. M. Mullin, T. Nakajima, D. R. Nascimento,
    J. A. Nichols, P. J. Nichols, J. Nieplocha, A. Otero-de-la-Roza, B. Palmer,
    A. Panyala, T. Pirojsirikul, B. Peng, R. Peverati, J. Pittner, L. Pollack,
   R. M. Richard, P. Sadayappan, G. C. Schatz, W. A. Shelton, D. W. Silverstein,
   D. M. A. Smith, T. A. Soares, D. Song, M. Swart, H. L. Taylor, G. S. Thomas,
            V. Tipparaju, D. G. Truhlar, K. Tsemekhman, T. Van Voorhis,
      A. Vazquez-Mayagoitia, P. Verma, O. Villa, A. Vishnu, K. D. Vogiatzis,
        D. Wang, J. H. Weare, M. J. Williamson, T. L. Windus, K. Wolinski,
        A. T. Wong, Q. Wu, C. Yang, Q. Yu, M. Zacharias, Z. Zhang, Y. Zhao,
                                and R. J. Harrison
                        "NWChem: Past, present, and future
                         J. Chem. Phys. 152, 184102 (2020)
                               doi:10.1063/5.0004997

                                      AUTHORS
                                      -------
  E. Apra, E. J. Bylaska, N. Govind, K. Kowalski, M. Valiev, D. Mejia-Rodriguez,
       A. Kunitsa, N. P. Bauman, A. Panyala, W. A. de Jong, T. P. Straatsma,
   H. J. J. van Dam, D. Wang, T. L. Windus, J. Hammond, J. Autschbach, A. Woods,
    K. Bhaskaran-Nair, J. Brabec, K. Lopata, S. A. Fischer, S. Krishnamoorthy,
     M. Jacquelin, W. Ma, M. Klemm, O. Villa, Y. Chen, V. Anisimov, F. Aquino,
     S. Hirata, M. T. Hackler, E. Hermes, L. Jensen, J. E. Moore, J. C. Becca,
      V. Konjkov, T. Risthaus, M. Malagoli, A. Marenich, A. Otero-de-la-Roza,
        J. Mullin, P. Nichols, R. Peverati, J. Pittner, Y. Zhao, P.-D. Fan,
        A. Fonari, M. J. Williamson, R. J. Harrison, J. R. Rehr, M. Dupuis,
     D. Silverstein, D. M. A. Smith, J. Nieplocha, V. Tipparaju, M. Krishnan,
     B. E. Van Kuiken, A. Vazquez-Mayagoitia, M. Swart, Q. Wu, T. Van Voorhis,
     A. A. Auer, M. Nooijen, L. D. Crosby, E. Brown, G. Cisneros, G. I. Fann,
   H. Fruchtl, J. Garza, K. Hirao, R. A. Kendall, J. A. Nichols, K. Tsemekhman,
    K. Wolinski, J. Anchell, D. E. Bernholdt, P. Borowski, T. Clark, D. Clerc,
   H. Dachsel, M. J. O. Deegan, K. Dyall, D. Elwood, E. Glendening, M. Gutowski,
   A. C. Hess, J. Jaffe, B. G. Johnson, J. Ju, R. Kobayashi, R. Kutteh, Z. Lin,
   R. Littlefield, X. Long, B. Meng, T. Nakajima, S. Niu, L. Pollack, M. Rosing,
   K. Glaesemann, G. Sandrone, M. Stave, H. Taylor, G. Thomas, J. H. van Lenthe,
                               A. T. Wong, Z. Zhang.

 Total times  cpu:        0.6s     wall:        0.6s
