 argument  1 = H2_4.859999999999999/H2_4.859999999999999.nw



============================== echo of input deck ==============================
echo

start molecule

title "H2"
charge 0

memory total 2 gb

geometry units angstrom noautoz
symmetry group d2h
H 0.00000 0.00000 4.859999999999999
end

basis spherical
 * library aug-cc-pVDZ
end

tce
 cisd
 maxiter 6000
end

task tce energy
================================================================================


                                         
                                         


             Northwest Computational Chemistry Package (NWChem) 7.2.2
             --------------------------------------------------------


                    Environmental Molecular Sciences Laboratory
                       Pacific Northwest National Laboratory
                                Richland, WA 99352

                              Copyright (c) 1994-2022
                       Pacific Northwest National Laboratory
                            Battelle Memorial Institute

             NWChem is an open-source computational chemistry package
                        distributed under the terms of the
                      Educational Community License (ECL) 2.0
             A copy of the license is included with this distribution
                              in the LICENSE.TXT file

                                  ACKNOWLEDGMENT
                                  --------------

            This software and its documentation were developed at the
            EMSL at Pacific Northwest National Laboratory, a multiprogram
            national laboratory, operated for the U.S. Department of Energy
            by Battelle under Contract Number DE-AC05-76RL01830. Support
            for this work was provided by the Department of Energy Office
            of Biological and Environmental Research, Office of Basic
            Energy Sciences, and the Office of Advanced Scientific Computing.


           Job information
           ---------------

    hostname        = Eliass-MacBook-Air.local
    program         = nwchem
    date            = Wed Feb 28 14:16:52 2024

    compiled        = Sun_Dec_10_10:51:21_2023
    source          = /private/tmp/nwchem-20231210-5888-3uvdjr/nwchem-7.2.2
    nwchem branch   = 7.2.2
    nwchem revision = 74936fb9
    ga revision     = 5.8.0
    use scalapack   = T
    input           = H2_4.859999999999999/H2_4.859999999999999.nw
    prefix          = molecule.
    data base       = ./molecule.db
    status          = startup
    nproc           =        4
    time left       =     -1s



           Memory information
           ------------------

    heap     =   67108860 doubles =    512.0 Mbytes
    stack    =   67108865 doubles =    512.0 Mbytes
    global   =  134217728 doubles =   1024.0 Mbytes (distinct from heap & stack)
    total    =  268435453 doubles =   2048.0 Mbytes
    verify   = yes
    hardfail = no 


           Directory information
           ---------------------

  0 permanent = .
  0 scratch   = .




                                NWChem Input Module
                                -------------------


                                        H2
                                        --

 Scaling coordinates for geometry "geometry" by  1.889725989
 (inverse scale =  0.529177249)



                             Geometry "geometry" -> ""
                             -------------------------

 Output coordinates in angstroms (scale by  1.889725989 to convert to a.u.)

  No.       Tag          Charge          X              Y              Z
 ---- ---------------- ---------- -------------- -------------- --------------
    1 H                    1.0000     0.00000000     0.00000000     4.86000000
    2 H                    1.0000     0.00000000     0.00000000    -4.86000000

      Atomic Mass 
      ----------- 

      H                  1.007825


 Effective nuclear repulsion energy (a.u.)       0.0544421038

            Nuclear Dipole moment (a.u.) 
            ----------------------------
        X                 Y               Z
 ---------------- ---------------- ----------------
     0.0000000000     0.0000000000     0.0000000000

      Symmetry information
      --------------------

 Group name             D2h       
 Group number             26
 Group order               8
 No. of unique centers     1

      Symmetry unique atoms

     1


            XYZ format geometry
            -------------------
     2
 geometry
 H                     0.00000000     0.00000000     4.86000000
 H                     0.00000000     0.00000000    -4.86000000

  library name resolved from: .nwchemrc
  library file name is: </opt/homebrew/Cellar/nwchem/7.2.2/share/nwchem/libraries/>
  


 Summary of "ao basis" -> "" (spherical)
 ------------------------------------------------------------------------------
       Tag                 Description            Shells   Functions and Types
 ---------------- ------------------------------  ------  ---------------------
 *                        aug-cc-pVDZ                 on all atoms 


                      Basis "ao basis" -> "ao basis" (spherical)
                      -----
  H (Hydrogen)
  ------------
            Exponent  Coefficients 
       -------------- ---------------------------------------------------------
  1 S  1.30100000E+01  0.019685
  1 S  1.96200000E+00  0.137977
  1 S  4.44600000E-01  0.478148

  2 S  1.22000000E-01  1.000000

  3 S  2.97400000E-02  1.000000

  4 P  7.27000000E-01  1.000000

  5 P  1.41000000E-01  1.000000



 Summary of "ao basis" -> "ao basis" (spherical)
 ------------------------------------------------------------------------------
       Tag                 Description            Shells   Functions and Types
 ---------------- ------------------------------  ------  ---------------------
 H                        aug-cc-pVDZ                5        9   3s2p


                                 NWChem SCF Module
                                 -----------------


                                        H2



  ao basis        = "ao basis"
  functions       =    18
  atoms           =     2
  closed shells   =     1
  open shells     =     0
  charge          =   0.00
  wavefunction    = RHF 
  input vectors   = atomic
  output vectors  = ./molecule.movecs
  use symmetry    = T
  symmetry adapt  = T


 Summary of "ao basis" -> "ao basis" (spherical)
 ------------------------------------------------------------------------------
       Tag                 Description            Shells   Functions and Types
 ---------------- ------------------------------  ------  ---------------------
 H                        aug-cc-pVDZ                5        9   3s2p


      Symmetry analysis of basis
      --------------------------

        ag          5
        au          0
        b1g         0
        b1u         5
        b2g         2
        b2u         2
        b3g         2
        b3u         2


 Forming initial guess at       0.0s


      Superposition of Atomic Density Guess
      -------------------------------------

 Sum of atomic energies:          -0.99866926

      Non-variational initial energy
      ------------------------------

 Total energy =      -0.687057
 1-e energy   =      -1.107553
 2-e energy   =       0.366054
 HOMO         =      -0.199819
 LUMO         =      -0.199819


 !!!!!!!!!!!!!!!!!!!!!!!!!!!!!!!!!!!!!!!!!!!!!!!!!!!!!!!!!!!!!!!!!!!!!!
 Warning - the HOMO and LUMO are degenerate and you are using symmetry.
 This can lead to non-variational energies and poor convergence.
 Modify the initial guess, or use an open-shell wavefunction, or turn
 off symmetry.
 !!!!!!!!!!!!!!!!!!!!!!!!!!!!!!!!!!!!!!!!!!!!!!!!!!!!!!!!!!!!!!!!!!!!!!


      Symmetry analysis of molecular orbitals - initial
      -------------------------------------------------


 !! scf_movecs_sym_adapt:    8 vectors were symmetry contaminated

  Symmetry fudging

 !! scf_movecs_sym_adapt:    6 vectors were symmetry contaminated

  Numbering of irreducible representations: 

     1 ag          2 au          3 b1g         4 b1u         5 b2g     
     6 b2u         7 b3g         8 b3u     

  Orbital symmetries:

     1 b1u         2 ag          3 ag          4 b1u         5 b2u     
     6 b3u         7 b2g         8 b3g         9 ag         10 b1u     
    11 ag      


 Starting SCF solution at       0.0s



 ----------------------------------------------
         Quadratically convergent ROHF

 Convergence threshold     :          1.000E-04
 Maximum no. of iterations :           30
 Final Fock-matrix accuracy:          1.000E-07
 ----------------------------------------------


 #quartets = 4.990D+02 #integrals = 1.287D+03 #direct =  0.0% #cached =100.0%


 Integral file          = ./molecule.aoints.0
 Record size in doubles =  65536        No. of integs per rec  =  43688
 Max. records in memory =      3        Max. records in file   = 159213
 No. of bits per label  =      8        No. of bits per value  =     64


File balance: exchanges=     0  moved=     0  time=   0.0


              iter       energy          gnorm     gmax       time
             ----- ------------------- --------- --------- --------
                 1       -0.7410268218  2.98D-02  2.38D-02      0.0
                 2       -0.7413512290  3.28D-04  3.10D-04      0.0
                 3       -0.7413512783  4.67D-07  4.19D-07      0.0


       Final RHF  results 
       ------------------ 

         Total SCF energy =     -0.741351278293
      One-electron energy =     -1.079957573890
      Two-electron energy =      0.284164191790
 Nuclear repulsion energy =      0.054442103807

        Time for solution =      0.0s



       Symmetry analysis of molecular orbitals - final
       -----------------------------------------------

  Numbering of irreducible representations: 

     1 ag          2 au          3 b1g         4 b1u         5 b2g     
     6 b2u         7 b3g         8 b3u     

  Orbital symmetries:

     1 b1u         2 ag          3 ag          4 b1u         5 b1u     
     6 b2g         7 b3g         8 b2u         9 b3u        10 ag      
    11 ag      

             Final eigenvalues
             -----------------

              1      
    1   -0.2558
    2   -0.2013
    3    0.0822
    4    0.0863
    5    0.2856
    6    0.2857
    7    0.2857
    8    0.2859
    9    0.2859
   10    0.2860
   11    0.7406

                       ROHF Final Molecular Orbital Analysis
                       -------------------------------------

 Vector    1  Occ=2.000000D+00  E=-2.558146D-01  Symmetry=b1u
              MO Center=  0.0D+00,  0.0D+00,  3.5D-18, r^2= 2.5D+01
   Bfn.  Coefficient  Atom+Function         Bfn.  Coefficient  Atom+Function  
  ----- ------------  ---------------      ----- ------------  ---------------
     2      0.372870  1 H  s                 11     -0.372870  2 H  s          
     1      0.316721  1 H  s                 10     -0.316721  2 H  s          

 Vector    2  Occ=0.000000D+00  E=-2.013464D-01  Symmetry=ag
              MO Center=  0.0D+00,  0.0D+00, -2.0D-16, r^2= 2.5D+01
   Bfn.  Coefficient  Atom+Function         Bfn.  Coefficient  Atom+Function  
  ----- ------------  ---------------      ----- ------------  ---------------
     2      0.373132  1 H  s                 11      0.373132  2 H  s          
     1      0.316642  1 H  s                 10      0.316642  2 H  s          

 Vector    3  Occ=0.000000D+00  E= 8.216132D-02  Symmetry=ag
              MO Center=  6.7D-16,  6.7D-16,  1.6D-14, r^2= 3.3D+01
   Bfn.  Coefficient  Atom+Function         Bfn.  Coefficient  Atom+Function  
  ----- ------------  ---------------      ----- ------------  ---------------
     3      0.948937  1 H  s                 12      0.948937  2 H  s          
     2     -0.575621  1 H  s                 11     -0.575621  2 H  s          

 Vector    4  Occ=0.000000D+00  E= 8.629399D-02  Symmetry=b1u
              MO Center= -4.9D-25,  8.5D-25, -1.7D-14, r^2= 3.4D+01
   Bfn.  Coefficient  Atom+Function         Bfn.  Coefficient  Atom+Function  
  ----- ------------  ---------------      ----- ------------  ---------------
     3      0.959038  1 H  s                 12     -0.959038  2 H  s          
     2     -0.577972  1 H  s                 11      0.577972  2 H  s          

 Vector    5  Occ=0.000000D+00  E= 2.855509D-01  Symmetry=b1u
              MO Center= -1.0D-35, -2.4D-36, -9.8D-17, r^2= 2.6D+01
   Bfn.  Coefficient  Atom+Function         Bfn.  Coefficient  Atom+Function  
  ----- ------------  ---------------      ----- ------------  ---------------
     9      0.715385  1 H  pz                18      0.715385  2 H  pz         

 Vector    6  Occ=0.000000D+00  E= 2.856697D-01  Symmetry=b2g
              MO Center= -5.8D-27,  1.6D-46,  7.3D-17, r^2= 2.6D+01
   Bfn.  Coefficient  Atom+Function         Bfn.  Coefficient  Atom+Function  
  ----- ------------  ---------------      ----- ------------  ---------------
     7      0.715396  1 H  px                16     -0.715396  2 H  px         

 Vector    7  Occ=0.000000D+00  E= 2.856697D-01  Symmetry=b3g
              MO Center=  9.6D-48,  1.0D-26, -5.6D-17, r^2= 2.6D+01
   Bfn.  Coefficient  Atom+Function         Bfn.  Coefficient  Atom+Function  
  ----- ------------  ---------------      ----- ------------  ---------------
     8      0.715396  1 H  py                17     -0.715396  2 H  py         

 Vector    8  Occ=0.000000D+00  E= 2.858955D-01  Symmetry=b2u
              MO Center=  3.9D-46, -6.0D-16, -2.0D-16, r^2= 2.6D+01
   Bfn.  Coefficient  Atom+Function         Bfn.  Coefficient  Atom+Function  
  ----- ------------  ---------------      ----- ------------  ---------------
     8      0.715402  1 H  py                17      0.715402  2 H  py         

 Vector    9  Occ=0.000000D+00  E= 2.858955D-01  Symmetry=b3u
              MO Center= -6.2D-16,  4.1D-47,  2.4D-16, r^2= 2.6D+01
   Bfn.  Coefficient  Atom+Function         Bfn.  Coefficient  Atom+Function  
  ----- ------------  ---------------      ----- ------------  ---------------
     7      0.715402  1 H  px                16      0.715402  2 H  px         

 Vector   10  Occ=0.000000D+00  E= 2.860256D-01  Symmetry=ag
              MO Center=  9.2D-22,  1.2D-21,  1.6D-15, r^2= 2.6D+01
   Bfn.  Coefficient  Atom+Function         Bfn.  Coefficient  Atom+Function  
  ----- ------------  ---------------      ----- ------------  ---------------
     9      0.715401  1 H  pz                18     -0.715401  2 H  pz         

 Vector   11  Occ=0.000000D+00  E= 7.405971D-01  Symmetry=ag
              MO Center= -4.3D-18, -9.2D-19,  2.0D-15, r^2= 2.6D+01
   Bfn.  Coefficient  Atom+Function         Bfn.  Coefficient  Atom+Function  
  ----- ------------  ---------------      ----- ------------  ---------------
     2      1.211413  1 H  s                 11      1.211413  2 H  s          
     1     -0.979789  1 H  s                 10     -0.979789  2 H  s          
     3     -0.459486  1 H  s                 12     -0.459486  2 H  s          


 center of mass
 --------------
 x =   0.00000000 y =   0.00000000 z =   0.00000000

 moments of inertia (a.u.)
 ------------------
         170.014253524629           0.000000000000           0.000000000000
           0.000000000000         170.014253524629           0.000000000000
           0.000000000000           0.000000000000           0.000000000000

  Mulliken analysis of the total density
  --------------------------------------

    Atom       Charge   Shell Charges
 -----------   ------   -------------------------------------------------------
    1 H    1     1.00   0.39  0.50  0.11 -0.00  0.00
    2 H    1     1.00   0.39  0.50  0.11 -0.00  0.00

       Multipole analysis of the density wrt the origin
       ------------------------------------------------

     L   x y z        total         open         nuclear
     -   - - -        -----         ----         -------
     0   0 0 0     -0.000000      0.000000      2.000000

     1   1 0 0      0.000000      0.000000      0.000000
     1   0 1 0      0.000000      0.000000      0.000000
     1   0 0 1      0.000000      0.000000      0.000000

     2   2 0 0     -3.212871      0.000000      0.000000
     2   1 1 0      0.000000      0.000000      0.000000
     2   1 0 1      0.000000      0.000000      0.000000
     2   0 2 0     -3.212871      0.000000      0.000000
     2   0 1 1      0.000000      0.000000      0.000000
     2   0 0 2     -2.884913      0.000000    168.694221


 Parallel integral file used       4 records with       0 large values

                   NWChem Extensible Many-Electron Theory Module
                   ---------------------------------------------

              ======================================================
                   This portion of the program was automatically
                  generated by a Tensor Contraction Engine (TCE).
                  The development of this portion of the program
                 and TCE was supported by US Department of Energy,
                Office of Science, Office of Basic Energy Science.
                      TCE is a product of Battelle and PNNL.
              Please cite: S.Hirata, J.Phys.Chem.A 107, 9887 (2003).
              ======================================================

                                        H2


            General Information
            -------------------
      Number of processors :     4
         Wavefunction type : Restricted Hartree-Fock
          No. of electrons :     2
           Alpha electrons :     1
            Beta electrons :     1
           No. of orbitals :    36
            Alpha orbitals :    18
             Beta orbitals :    18
        Alpha frozen cores :     0
         Beta frozen cores :     0
     Alpha frozen virtuals :     0
      Beta frozen virtuals :     0
         Spin multiplicity : singlet 
    Number of AO functions :    18
       Number of AO shells :    10
        Use of symmetry is : on 
      Symmetry adaption is : on 
         Schwarz screening : 0.10D-09

          Correlation Information
          -----------------------
          Calculation type : Configuration interaction singles & doubles                 
   Perturbative correction : none                                                        
            Max iterations :     6000
        Residual threshold : 0.10D-06
     T(0) DIIS level shift : 0.00D+00
     L(0) DIIS level shift : 0.00D+00
     T(1) DIIS level shift : 0.00D+00
     L(1) DIIS level shift : 0.00D+00
     T(R) DIIS level shift : 0.00D+00
     T(I) DIIS level shift : 0.00D+00
   CC-T/L Amplitude update :  5-th order DIIS
                I/O scheme : Global Array Library
        L-threshold :  0.10D-06
        EOM-threshold :  0.10D-06
 no EOMCCSD initial starts read in
 TCE RESTART OPTIONS
 READ_INT:   F
 WRITE_INT:  F
 READ_TA:    F
 WRITE_TA:   F
 READ_XA:    F
 WRITE_XA:   F
 READ_IN3:   F
 WRITE_IN3:  F
 SLICE:      F
 D4D5:       F
 quantumc:   F
 qrotation:  F
 pwtce:      F
 qducc:      F
 nacto:                         0
 nrotv:                         0
 nrot:                          0

            Memory Information
            ------------------
          Available GA space size is     536870588 doubles
          Available MA space size is     134216828 doubles

 Maximum block size        32 doubles

 tile_dim =      5

 Block   Spin    Irrep     Size     Offset   Alpha
 -------------------------------------------------
   1    alpha     b1u    1 doubles       0       1
   2    beta      b1u    1 doubles       1       1
   3    alpha     ag     5 doubles       2       3
   4    alpha     b1u    4 doubles       7       4
   5    alpha     b2g    2 doubles      11       5
   6    alpha     b2u    2 doubles      13       6
   7    alpha     b3g    2 doubles      15       7
   8    alpha     b3u    2 doubles      17       8
   9    beta      ag     5 doubles      19       3
  10    beta      b1u    4 doubles      24       4
  11    beta      b2g    2 doubles      28       5
  12    beta      b2u    2 doubles      30       6
  13    beta      b3g    2 doubles      32       7
  14    beta      b3u    2 doubles      34       8

 Global array virtual files algorithm will be used

 Parallel file system coherency ......... OK
  avail0,avail1,avail0-avail1                335175               335175                    0
  avail0,avail1,avail0-avail1                335175               335175                    0
  avail0,avail1,avail0-avail1                335175               335191                  -16
  avail0,avail1,avail0-avail1                335175               335191                  -16

 #quartets = 9.000D+02 #integrals = 1.884D+03 #direct =  0.0% #cached =100.0%


 Integral file          = ./molecule.aoints.0
 Record size in doubles =  65536        No. of integs per rec  =  43688
 Max. records in memory =      3        Max. records in file   =   9949
 No. of bits per label  =      8        No. of bits per value  =     64


File balance: exchanges=     0  moved=     0  time=   0.0


 Fock matrix recomputed
 1-e file size   =               66
 1-e file name   = ./molecule.f1
 Cpu & wall time / sec            0.0            0.0

 tce_ao2e: fast2e=1
 half-transformed integrals in memory

 2-e (intermediate) file size =          228744
 2-e (intermediate) file name = ./molecule.v2i
 Cpu & wall time / sec            0.0            0.0

 tce_mo2e: fast2e=1
 2-e integrals stored in memory

 2-e file size   =            22285
 2-e file name   = ./molecule.v2
 Cpu & wall time / sec            0.0            0.0
 T1-number-of-tasks                    1

 t1 file size   =                4
 t1 file name   = ./molecule.t1
 t1 file handle =       -999
 T2-number-of-boxes                   12

 t2 file size   =              114
 t2 file name   = ./molecule.t2
 t2 file handle =       -996

 CISD iterations
 --------------------------------------------------------
 Iter          Residuum       Correlation     Cpu    Wall
 --------------------------------------------------------
    1   0.9823644746529  -0.5200002768753     0.0     0.0
    2   8.1160191141035   1.3897603909419     0.0     0.0
    31437.2416719375724  18.0986001611038     0.0     0.0
    4******************3043.7187575685471     0.0     0.0
    5************************************     0.0     0.0
 MICROCYCLE DIIS UPDATE:                    5                    5
    6   0.2917168355720  -0.0065635205642     0.0     0.0
    7   1.0815094644359  -0.5476484510247     0.0     0.0
    8  10.2752658390097   1.5633457233667     0.0     0.0
    92287.0414860325477  22.8582817061005     0.0     0.0
   10******************4840.3982888223827     0.0     0.0
 MICROCYCLE DIIS UPDATE:                   10                    5
   11   0.1986627738686  -0.1203441456167     0.0     0.0
   12   0.9770707118932  -0.5337011927226     0.0     0.0
   13   8.8050764568506   1.4436530148030     0.0     0.0
   141688.7879102231020  19.6233431731944     0.0     0.0
   15******************3575.3463161284144     0.0     0.0
 MICROCYCLE DIIS UPDATE:                   15                    5
   16   0.1764111315341  -0.1435259112897     0.0     0.0
   17   0.8688132379801  -0.5108914927426     0.0     0.0
   18   6.5768068790448   1.2493877590044     0.0     0.0
   19 951.9257709707656  14.7171625186244     0.0     0.0
   20******************2017.9738698895403     0.0     0.0
 MICROCYCLE DIIS UPDATE:                   20                    5
   21   0.1437560457292  -0.1704319774770     0.0     0.0
   22   0.6930974627783  -0.4706799436893     0.0     0.0
   23   3.6368382552611   0.9321559936263     0.0     0.0
   24 294.6096491942415   8.1629581802466     0.0     0.0
   25****************** 627.1636917241754     0.0     0.0
 MICROCYCLE DIIS UPDATE:                   25                    5
   26   0.1000096997664  -0.2014173890242     0.0     0.0
   27   0.4552936276427  -0.4099059285779     0.0     0.0
   28   1.1101321411223   0.5081731170660     0.0     0.0
   29  22.7206012106520   2.2379907514566     0.0     0.0
   30******************  49.4888156511769     0.0     0.0
 MICROCYCLE DIIS UPDATE:                   30                    5
   31   0.0798823500549  -0.2160732763203     0.0     0.0
   32   0.3530147249844  -0.3812201459281     0.0     0.0
   33   0.5888825293921   0.3290658306334     0.0     0.0
   34   2.3299369228727   0.7093936631040     0.0     0.0
   35 130.4803135274067   5.3744277802227     0.0     0.0
 MICROCYCLE DIIS UPDATE:                   35                    5
   36   0.0974108451562  -0.2053706212660     0.0     0.0
   37   0.4576399439084  -0.4112144901667     0.0     0.0
   38   1.1238794454304   0.5116756591553     0.0     0.0
   39  23.4409418322067   2.2737189332931     0.0     0.0
   40******************  51.0351382666114     0.0     0.0
 MICROCYCLE DIIS UPDATE:                   40                    5
   41   0.0879488663572  -0.2110908264426     0.0     0.0
   42   0.4077002105911  -0.3971199030956     0.0     0.0
   43   0.8175783372660   0.4236319531918     0.0     0.0
   44   9.5711867037599   1.4434651113304     0.0     0.0
   451984.9247776461996  21.1749104539991     0.0     0.0
 MICROCYCLE DIIS UPDATE:                   45                    5
   46   0.0797024688534  -0.2159188969587     0.0     0.0
   47   0.3640506652497  -0.3844307422838     0.0     0.0
   48   0.6250694285327   0.3473627769362     0.0     0.0
   49   3.2553285764381   0.8376891202337     0.0     0.0
   50 246.8834781703795   7.4169906209740     0.0     0.0
 MICROCYCLE DIIS UPDATE:                   50                    5
   51   0.0771209304350  -0.2174396320498     0.0     0.0
   52   0.3507992057966  -0.3805090043539     0.0     0.0
   53   0.5808967075659   0.3242985018453     0.0     0.0
   54   2.1065907330041   0.6751631721605     0.0     0.0
   55 107.8004823918681   4.8797251984667     0.0     0.0
 MICROCYCLE DIIS UPDATE:                   55                    5
   56   0.0738662006623  -0.2193204747914     0.0     0.0
   57   0.3342859629128  -0.3755535266302     0.0     0.0
   58   0.5350319453910   0.2956086795140     0.0     0.0
   59   1.0620971028826   0.4863200783937     0.0     0.0
   60  29.8994028949578   2.5454649066844     0.0     0.0
 MICROCYCLE DIIS UPDATE:                   60                    5
   61   0.0703427707552  -0.2213261373052     0.0     0.0
   62   0.3165145157458  -0.3701471478671     0.0     0.0
   63   0.4964710718733   0.2648345797146     0.0     0.0
   64   0.3451415607188   0.3002565612345     0.0     0.0
   65   3.8147197743101   0.8915505406442     0.0     0.0
 MICROCYCLE DIIS UPDATE:                   65                    5
   66   0.0650558379037  -0.2242817566743     0.0     0.0
   67   0.2902382123298  -0.3620009688551     0.0     0.0
   68   0.4572608066504   0.2195045589498     0.0     0.0
   69   0.2323780116893   0.0572288817035     0.0     0.0
   70   0.3614166162159  -0.3016010953001     0.0     0.0
 MICROCYCLE DIIS UPDATE:                   70                    5
   71   0.0769085504575  -0.2176763838497     0.0     0.0
   72   0.3495959897326  -0.3801994183898     0.0     0.0
   73   0.5771918583872   0.3222408208157     0.0     0.0
   74   2.0197514994018   0.6613562067271     0.0     0.0
   75  99.5466213351938   4.6868873178490     0.0     0.0
 MICROCYCLE DIIS UPDATE:                   75                    5
   76   0.0715637047532  -0.2206972655596     0.0     0.0
   77   0.3222240108860  -0.3719316547056     0.0     0.0
   78   0.5076667455107   0.2747825228242     0.0     0.0
   79   0.5353803294396   0.3587524921073     0.0     0.0
   80   8.5277417829075   1.3424862651313     0.0     0.0
 MICROCYCLE DIIS UPDATE:                   80                    5
   81   0.0685206500761  -0.2224051770315     0.0     0.0
   82   0.3070998436617  -0.3672828751464     0.0     0.0
   83   0.4801354440725   0.2486265562271     0.0     0.0
   84   0.1410482512063   0.2092763280292     0.0     0.0
   85   0.4150666889904   0.3165506724835     0.0     0.0
 MICROCYCLE DIIS UPDATE:                   85                    5
   86   0.0587674317229  -0.2277602323146     0.0     0.0
   87   0.2593028398049  -0.3522015952022     0.0     0.0
   88   0.4306870974143   0.1664945973048     0.0     0.0
   89   0.3476916376440  -0.1798914961827     0.0     0.0
   90   0.4439652847306  -0.4072103171776     0.0     0.0
 MICROCYCLE DIIS UPDATE:                   90                    5
   91   0.0416621613956  -0.2367701128973     0.0     0.0
   92   0.1774961430872  -0.3249898378899     0.0     0.0
   93   0.3840132320725   0.0284667009512     0.0     0.0
   94   1.1367008157132  -0.5595432939077     0.0     0.0
   95  10.9893151744544   1.6191405351202     0.0     0.0
 MICROCYCLE DIIS UPDATE:                   95                    5
   96   0.0363337958410  -0.2395240600936     0.0     0.0
   97   0.1531669025371  -0.3164836096518     0.0     0.0
   98   0.3608441832873  -0.0119875048512     0.0     0.0
   99   1.3416732130742  -0.6058572301755     0.0     0.0
  100  17.8912367005260   2.0574883602444     0.0     0.0
 MICROCYCLE DIIS UPDATE:                  100                    5
  101   0.0314665630368  -0.2419885602451     0.0     0.0
  102   0.1312095461997  -0.3086302569648     0.0     0.0
  103   0.3329025701963  -0.0481667316088     0.0     0.0
  104   1.4152500874368  -0.6223400941160     0.0     0.0
  105  21.0522502810369   2.2282296918105     0.0     0.0
 MICROCYCLE DIIS UPDATE:                  105                    5
  106   0.0285588572735  -0.2434501556824     0.0     0.0
  107   0.1182974569623  -0.3039274235320     0.0     0.0
  108   0.3130038210418  -0.0693067496741     0.0     0.0
  109   1.4037492737187  -0.6210841378188     0.0     0.0
  110  20.9137080608604   2.2199156677820     0.0     0.0
 MICROCYCLE DIIS UPDATE:                  110                    5
  111   0.0261024019487  -0.2446778190905     0.0     0.0
  112   0.1075146832672  -0.2999488761520     0.0     0.0
  113   0.2943149042939  -0.0868811048463     0.0     0.0
  114   1.3630153424261  -0.6139318048054     0.0     0.0
  115  19.6540489477375   2.1517727296378     0.0     0.0
 MICROCYCLE DIIS UPDATE:                  115                    5
  116   0.0238443679351  -0.2458001949708     0.0     0.0
  117   0.0977033787709  -0.2962867007941     0.0     0.0
  118   0.2756289505296  -0.1028061702698     0.0     0.0
  119   1.3022874280711  -0.6026629605934     0.0     0.0
  120  17.7247778988174   2.0436433819283     0.0     0.0
 MICROCYCLE DIIS UPDATE:                  120                    5
  121   0.0217300745651  -0.2468458320596     0.0     0.0
  122   0.0886037508235  -0.2928532104696     0.0     0.0
  123   0.2568436471485  -0.1175175439436     0.0     0.0
  124   1.2270666385233  -0.5882092244132     0.0     0.0
  125  15.4225757267738   1.9068930735123     0.0     0.0
 MICROCYCLE DIIS UPDATE:                  125                    5
  126   0.0197317938164  -0.2478294476996     0.0     0.0
  127   0.0800808859960  -0.2896041370951     0.0     0.0
  128   0.2379663155170  -0.1312433720751     0.0     0.0
  129   1.1414976898028  -0.5712227787152     0.0     0.0
  130  12.9757401845106   1.7500211317406     0.0     0.0
 MICROCYCLE DIIS UPDATE:                  130                    5
  131   0.0178316525842  -0.2487606258294     0.0     0.0
  132   0.0720465038815  -0.2865110355309     0.0     0.0
  133   0.2190281071330  -0.1441337754828     0.0     0.0
  134   1.0488515252813  -0.5521937466664     0.0     0.0
  135  10.5564349971877   1.5797170528271     0.0     0.0
 MICROCYCLE DIIS UPDATE:                  135                    5
  136   0.0160167600777  -0.2496463226582     0.0     0.0
  137   0.0644363313459  -0.2835534363070     0.0     0.0
  138   0.2000642443264  -0.1562984550582     0.0     0.0
  139   0.9517565890355  -0.5315038762186     0.0     0.0
  140   8.2886117578365   1.4013512082904     0.0     0.0
 MICROCYCLE DIIS UPDATE:                  140                    5
  141   0.0142763924217  -0.2504923010428     0.0     0.0
  142   0.0571972989022  -0.2807143005918     0.0     0.0
  143   0.1810990616258  -0.1678278060972     0.0     0.0
  144   0.8522948929930  -0.5094465181618     0.0     0.0
  145   6.2547147389638   1.2191879637944     0.0     0.0
 MICROCYCLE DIIS UPDATE:                  145                    5
  146   0.0125993262620  -0.2513044532816     0.0     0.0
  147   0.0502760388785  -0.2779756880328     0.0     0.0
  148   0.1621234533988  -0.1788114956956     0.0     0.0
  149   0.7519928436305  -0.4862178141443     0.0     0.0
  150   4.5021513605447   1.0363972896146     0.0     0.0
 MICROCYCLE DIIS UPDATE:                  150                    5
  151   0.0109697629887  -0.2520907709379     0.0     0.0
  152   0.0436021966414  -0.2753120937510     0.0     0.0
  153   0.1430484486731  -0.1893648250225     0.0     0.0
  154   0.6516693222873  -0.4618636848185     0.0     0.0
  155   3.0500589169756   0.8548131573257     0.0     0.0
 MICROCYCLE DIIS UPDATE:                  155                    5
  156   0.0093584745165  -0.2528655666124     0.0     0.0
  157   0.0370531600520  -0.2726759273234     0.0     0.0
  158   0.1235914175099  -0.1996837482111     0.0     0.0
  159   0.5509702622682  -0.4361221944098     0.0     0.0
  160   1.8975230358487   0.6741602202355     0.0     0.0
 MICROCYCLE DIIS UPDATE:                  160                    5
  161   0.0076976311160  -0.2536614134731     0.0     0.0
  162   0.0303548940445  -0.2699561758510     0.0     0.0
  163   0.1029386962868  -0.2101987396723     0.0     0.0
  164   0.4469395038236  -0.4079309059781     0.0     0.0
  165   1.0390764608174   0.4896788662631     0.0     0.0
 MICROCYCLE DIIS UPDATE:                  165                    5
  166   0.0057829769763  -0.2545754246151     0.0     0.0
  167   0.0226988724232  -0.2668176303526     0.0     0.0
  168   0.0784085670141  -0.2221673438600     0.0     0.0
  169   0.3284719489160  -0.3734348070987     0.0     0.0
  170   0.5199594817381   0.2830290441721     0.0     0.0
 MICROCYCLE DIIS UPDATE:                  170                    5
  171   0.0026715803653  -0.2560531025700     0.0     0.0
  172   0.0104064267536  -0.2617094760352     0.0     0.0
  173   0.0369868618326  -0.2412678574662     0.0     0.0
  174   0.1443264267111  -0.3130760475554     0.0     0.0
  175   0.3504628448010  -0.0277946066057     0.0     0.0
 MICROCYCLE DIIS UPDATE:                  175                    5
  176   0.0019266160561  -0.2582209426649     0.0     0.0
  177   0.0074201779517  -0.2541447547820     0.0     0.0
  178   0.0274338921852  -0.2686937136041     0.0     0.0
  179   0.0933304574638  -0.2150064215156     0.0     0.0
  180   0.3995584956171  -0.3944595575423     0.0     0.0
 MICROCYCLE DIIS UPDATE:                  180                    5
  181   0.0019955108938  -0.2582531752979     0.0     0.0
  182   0.0076927955494  -0.2540286304727     0.0     0.0
  183   0.0284530011406  -0.2691078111582     0.0     0.0
  184   0.0965597553531  -0.2134218954390     0.0     0.0
  185   0.4152865885448  -0.3989746118603     0.0     0.0
 MICROCYCLE DIIS UPDATE:                  185                    5
  186   0.0023083206394  -0.2583994565459     0.0     0.0
  187   0.0088916998177  -0.2535127182477     0.0     0.0
  188   0.0329711050134  -0.2709395355765     0.0     0.0
  189   0.1106772547894  -0.2063795717351     0.0     0.0
  190   0.4851995710307  -0.4184953585500     0.0     0.0
 MICROCYCLE DIIS UPDATE:                  190                    5
  191   0.0026923711041  -0.2585788723131     0.0     0.0
  192   0.0103615999529  -0.2528790306994     0.0     0.0
  193   0.0385407452050  -0.2731829737784     0.0     0.0
  194   0.1276131100757  -0.1976726657658     0.0     0.0
  195   0.5712265511009  -0.4414039425264     0.0     0.0
 MICROCYCLE DIIS UPDATE:                  195                    5
  196   0.0031301138330  -0.2587831668549     0.0     0.0
  197   0.0120337777840  -0.2521565075364     0.0     0.0
  198   0.0449174873909  -0.2757321539470     0.0     0.0
  199   0.1463657223583  -0.1876700812217     0.0     0.0
  200   0.6685941485106  -0.4660475172841     0.0     0.0
 MICROCYCLE DIIS UPDATE:                  200                    5
  201   0.0036489675154  -0.2590250411204     0.0     0.0
  202   0.0140111841031  -0.2512998188425     0.0     0.0
  203   0.0525138687073  -0.2787425671982     0.0     0.0
  204   0.1678114806944  -0.1757083040799     0.0     0.0
  205   0.7815648774883  -0.4931670089201     0.0     0.0
 MICROCYCLE DIIS UPDATE:                  205                    5
  206   0.0043029763097  -0.2593295041417     0.0     0.0
  207   0.0164964041542  -0.2502195709942     0.0     0.0
  208   0.0621462109941  -0.2825197950130     0.0     0.0
  209   0.1936004252784  -0.1604708287178     0.0     0.0
  210   0.9175050781202  -0.5240031424810     0.0     0.0
 MICROCYCLE DIIS UPDATE:                  210                    5
  211   0.0051806523637  -0.2597373843837     0.0     0.0
  212   0.0198185685294  -0.2487692453465     0.0     0.0
  213   0.0751695726867  -0.2875580733336     0.0     0.0
  214   0.2259611985016  -0.1397500057706     0.0     0.0
  215   1.0829144975986  -0.5592632517962     0.0     0.0
 MICROCYCLE DIIS UPDATE:                  215                    5
  216   0.0063966980476  -0.2603012280717     0.0     0.0
  217   0.0243965658291  -0.2467586665766     0.0     0.0
  218   0.0933891512142  -0.2944800191909     0.0     0.0
  219   0.2664007233866  -0.1105439795431     0.0     0.0
  220   1.2667565888344  -0.5958962515498     0.0     0.0
 MICROCYCLE DIIS UPDATE:                  220                    5
  221   0.0080073576730  -0.2610458343548     0.0     0.0
  222   0.0304151772406  -0.2440937498812     0.0     0.0
  223   0.1178168957266  -0.3035425383387     0.0     0.0
  224   0.3118961211659  -0.0710148927562     0.0     0.0
  225   1.4035909861413  -0.6211138362491     0.0     0.0
 MICROCYCLE DIIS UPDATE:                  225                    5
  226   0.0098956731013  -0.2619157169678     0.0     0.0
  227   0.0374060435302  -0.2409666813320     0.0     0.0
  228   0.1468542103851  -0.3140136302612     0.0     0.0
  229   0.3535538476654  -0.0235195928494     0.0     0.0
  230   1.3808597612898  -0.6143211355258     0.0     0.0
 MICROCYCLE DIIS UPDATE:                  230                    5
  231   0.0118524942920  -0.2628137958413     0.0     0.0
  232   0.0445763818377  -0.2377229523591     0.0     0.0
  233   0.1773590456833  -0.3246893155991     0.0     0.0
  234   0.3843354967380   0.0269137549270     0.0     0.0
  235   1.1506533544329  -0.5627500221572     0.0     0.0
 MICROCYCLE DIIS UPDATE:                  235                    5
  236   0.0137040705312  -0.2636606344754     0.0     0.0
  237   0.0512911934233  -0.2346507505425     0.0     0.0
  238   0.2065703440635  -0.3346256192012     0.0     0.0
  239   0.4041322131360   0.0756763345929     0.0     0.0
  240   0.7981832322588  -0.4694110244861     0.0     0.0
 MICROCYCLE DIIS UPDATE:                  240                    5
  241   0.0152241950452  -0.2643541988390     0.0     0.0
  242   0.0567513352871  -0.2321268790138     0.0     0.0
  243   0.2307708574414  -0.3426606367438     0.0     0.0
  244   0.4165022743981   0.1163918198997     0.0     0.0
  245   0.5097305080577  -0.3587091027036     0.0     0.0
 MICROCYCLE DIIS UPDATE:                  245                    5
  246   0.0158117353863  -0.2646235844021     0.0     0.0
  247   0.0588392369331  -0.2311538257065     0.0     0.0
  248   0.2401349246563  -0.3457251081797     0.0     0.0
  249   0.4211036045382   0.1322208030791     0.0     0.0
  250   0.4292073568432  -0.3076141157992     0.0     0.0
 MICROCYCLE DIIS UPDATE:                  250                    5
  251   0.0159251588926  -0.2646775606677     0.0     0.0
  252   0.0592225085564  -0.2309716122529     0.0     0.0
  253   0.2418742075462  -0.3462928385456     0.0     0.0
  254   0.4219755840555   0.1351692115013     0.0     0.0
  255   0.4172781967442  -0.2975921569172     0.0     0.0
 MICROCYCLE DIIS UPDATE:                  255                    5
  256   0.0166450047807  -0.2650056434913     0.0     0.0
  257   0.0617712405240  -0.2297786359496     0.0     0.0
  258   0.2533948370639  -0.3500237189743     0.0     0.0
  259   0.4281570003950   0.1547043295726     0.0     0.0
  260   0.3637486914858  -0.2272810565307     0.0     0.0
 MICROCYCLE DIIS UPDATE:                  260                    5
  261   0.0191157212136  -0.2661244943180     0.0     0.0
  262   0.0704596462691  -0.2256751134124     0.0     0.0
  263   0.2932694465330  -0.3626650023914     0.0     0.0
  264   0.4612605459614   0.2227359827400     0.0     0.0
  265   0.2182849821986   0.0712068033958     0.0     0.0
 MICROCYCLE DIIS UPDATE:                  265                    5
  266   0.0216210650811  -0.2672531723791     0.0     0.0
  267   0.0791803986673  -0.2214985119864     0.0     0.0
  268   0.3341805468537  -0.3752273339169     0.0     0.0
  269   0.5332327879633   0.2931541267590     0.0     0.0
  270   0.9764963577252   0.4679687569186     0.0     0.0
 MICROCYCLE DIIS UPDATE:                  270                    5
  271   0.0240803968567  -0.2683560314172     0.0     0.0
  272   0.0876111326240  -0.2173962909011     0.0     0.0
  273   0.3745621202685  -0.3872587998116     0.0     0.0
  274   0.6603361549154   0.3632180890998     0.0     0.0
  275   4.1946288208994   0.9514367853328     0.0     0.0
 MICROCYCLE DIIS UPDATE:                  275                    5
  276   0.0264845378788  -0.2694292801036     0.0     0.0
  277   0.0957363797241  -0.2133812993205     0.0     0.0
  278   0.4141986740020  -0.3987410124875     0.0     0.0
  279   0.8447610246533   0.4324729841753     0.0     0.0
  280  10.5429330156472   1.5163085386924     0.0     0.0
 MICROCYCLE DIIS UPDATE:                  280                    5
  281   0.0288536778589  -0.2704822836164     0.0     0.0
  282   0.1036307444078  -0.2094201015212     0.0     0.0
  283   0.4533370061082  -0.4097848910305     0.0     0.0
  284   1.0829281972831   0.5012828359611     0.0     0.0
  285  21.2403095611784   2.1632302973642     0.0     0.0
 MICROCYCLE DIIS UPDATE:                  285                    5
  286   0.0312014673870  -0.2715213463053     0.0     0.0
  287   0.1113434578301  -0.2054901000448     0.0     0.0
  288   0.4921259148325  -0.4204624897630     0.0     0.0
  289   1.3706479987097   0.5698575304036     0.0     0.0
  290  37.6964733977466   2.8929324492043     0.0     0.0
 MICROCYCLE DIIS UPDATE:                  290                    5
  291   0.0335382062033  -0.2725511846440     0.0     0.0
  292   0.1189103862307  -0.2015742136326     0.0     0.0
  293   0.5306640811878  -0.4308249745706     0.0     0.0
  294   1.7049290606425   0.6383297662055     0.0     0.0
  295  61.5188290171969   3.7062201272251     0.0     0.0
 MICROCYCLE DIIS UPDATE:                  295                    5
  296   0.0358719152266  -0.2735754339328     0.0     0.0
  297   0.1263582673472  -0.1976591049292     0.0     0.0
  298   0.5690147761065  -0.4409091600064     0.0     0.0
  299   2.0838751849916   0.7067770217418     0.0     0.0
  300  94.5137703843608   4.6037932315350     0.0     0.0
 MICROCYCLE DIIS UPDATE:                  300                    5
  301   0.0382090967016  -0.2745970043816     0.0     0.0
  302   0.1337076265456  -0.1937339253132     0.0     0.0
  303   0.6072164021399  -0.4507419516246     0.0     0.0
  304   2.5062819595246   0.7752376924793     0.0     0.0
  305 138.6832752055272   5.5861459734944     0.0     0.0
 MICROCYCLE DIIS UPDATE:                  305                    5
  306   0.0405552262992  -0.2756183109201     0.0     0.0
  307   0.1409746408083  -0.1897895025148     0.0     0.0
  308   0.6452891669070  -0.4603431645091     0.0     0.0
  309   2.9713127697477   0.8437212843131     0.0     0.0
  310 196.2160812907981   6.6534906623245     0.0     0.0
 MICROCYCLE DIIS UPDATE:                  310                    5
  311   0.0429150841873  -0.2766414271261     0.0     0.0
  312   0.1481723712566  -0.1858177937030     0.0     0.0
  313   0.6832393999263  -0.4697273647375     0.0     0.0
  314   3.4782827878521   0.9122149632730     0.0     0.0
  315 269.4727889759322   7.8056934786106     0.0     0.0
 MICROCYCLE DIIS UPDATE:                  315                    5
  316   0.0452929879276  -0.2776681927593     0.0     0.0
  317   0.1553116074000  -0.1818115001378     0.0     0.0
  318   0.7210623998506  -0.4789051056652     0.0     0.0
  319   4.0265178131574   0.9806878238234     0.0     0.0
  320 360.9641298959810   9.0422160165295     0.0     0.0
 MICROCYCLE DIIS UPDATE:                  320                    5
  321   0.0476929638899  -0.2787002920825     0.0     0.0
  322   0.1624014639112  -0.1777637828004     0.0     0.0
  323   0.7587443217745  -0.4878837734647     0.0     0.0
  324   4.6152582131257   1.0490936568037     0.0     0.0
  325 473.3215396791868  10.3620585935890     0.0     0.0
 MICROCYCLE DIIS UPDATE:                  325                    5
  326   0.0501188792448  -0.2797393132880     0.0     0.0
  327   0.1694498138794  -0.1736680425727     0.0     0.0
  328   0.7962634015309  -0.4966681689817     0.0     0.0
  329   5.2435885874573   1.1173726679865     0.0     0.0
  330 609.2590439773617  11.7637022059448     0.0     0.0
 MICROCYCLE DIIS UPDATE:                  330                    5
  331   0.0525745484355  -0.2807867955019     0.0     0.0
  332   0.1764636106006  -0.1695177420033     0.0     0.0
  333   0.8335906937178  -0.5052609036771     0.0     0.0
  334   5.9103812743390   1.1854524115443     0.0     0.0
  335 771.5253065311940  13.2450463656586     0.0     0.0
 MICROCYCLE DIIS UPDATE:                  335                    5
  336   0.0550638233703  -0.2818442676420     0.0     0.0
  337   0.1834491314780  -0.1653062533644     0.0     0.0
  338   0.8706904296645  -0.5136626584901     0.0     0.0
  339   6.6142462907152   1.2532480929142     0.0     0.0
  340 962.8444909713591  14.8033401502143     0.0     0.0
 MICROCYCLE DIIS UPDATE:                  340                    5
  341   0.0575906738764  -0.2829132821095     0.0     0.0
  342   0.1904121665042  -0.1610267221332     0.0     0.0
  343   0.9075200577158  -0.5218723366342     0.0     0.0
  344   7.3534828071608   1.3206623267780     0.0     0.0
  3451185.8443523770259  16.4351037137650     0.0     0.0
 MICROCYCLE DIIS UPDATE:                  345                    5
  346   0.0601592633911  -0.2839954455332     0.0     0.0
  347   0.1973581668877  -0.1566719375845     0.0     0.0
  348   0.9440299987724  -0.5298871297047     0.0     0.0
  349   8.1260286064383   1.3875843887688     0.0     0.0
  3501442.9696980958961  18.1360372780550     0.0     0.0
 MICROCYCLE DIIS UPDATE:                  350                    5
  351   0.0627740240053  -0.2850924483409     0.0     0.0
  352   0.2042923649694  -0.1522342035599     0.0     0.0
  353   0.9801631281805  -0.5377025083432     0.0     0.0
  354   8.9294046387162   1.4538889633038     0.0     0.0
  3551736.3790386603655  19.9009142360271     0.0     0.0
 MICROCYCLE DIIS UPDATE:                  355                    5
  356   0.0654397345841  -0.2862060947041     0.0     0.0
  357   0.2112198736468  -0.1477052030763     0.0     0.0
  358   1.0158539765448  -0.5453121424550     0.0     0.0
  359   9.7606520187076   1.5194343577324     0.0     0.0
  3602067.8218868342810  21.7234544301708     0.0     0.0
 MICROCYCLE DIIS UPDATE:                  360                    5
  361   0.0681616056644  -0.2873383343261     0.0     0.0
  362   0.2181457715802  -0.1430758504122     0.0     0.0
  363   1.0510276242897  -0.5527077506501     0.0     0.0
  364  10.6162587429733   1.5840601205015     0.0     0.0
  3652438.4937577601891  23.5961728758579     0.0     0.0
 MICROCYCLE DIIS UPDATE:                  365                    5
  366   0.0709453751323  -0.2884912976034     0.0     0.0
  367   0.2250751791517  -0.1383361237326     0.0     0.0
  368   1.0855982455224  -0.5598788734319     0.0     0.0
  369  11.4920730918934   1.6475839642333     0.0     0.0
  3702848.8654807377316  25.5101981216705     0.0     0.0
 MICROCYCLE DIIS UPDATE:                  370                    5
  371   0.0737974193145  -0.2896673358761     0.0     0.0
  372   0.2320133292853  -0.1334748701562     0.0     0.0
  373   1.1194672337495  -0.5668125590501     0.0     0.0
  374  12.3832001248241   1.7097978493183     0.0     0.0
  3753298.4829655482226  27.4550529818460     0.0     0.0
 MICROCYCLE DIIS UPDATE:                  375                    5
  376   0.0767248851771  -0.2908690688284     0.0     0.0
  377   0.2389656367447  -0.1284795732774     0.0     0.0
  378   1.1525208128878  -0.5734929442356     0.0     0.0
  379  13.2838768534395   1.7704630251635     0.0     0.0
  3803785.7331030306063  29.4183884262812     0.0     0.0
 MICROCYCLE DIIS UPDATE:                  380                    5
  381   0.0797358508979  -0.2920994416236     0.0     0.0
  382   0.2459377692938  -0.1233360703452     0.0     0.0
  383   1.1846269980945  -0.5799007033352     0.0     0.0
  384  14.1873205153476   1.8293037471576     0.0     0.0
  3854307.5710706147520  31.3856587787754     0.0     0.0
 MICROCYCLE DIIS UPDATE:                  385                    5
  386   0.0828395244242  -0.2933617951633     0.0     0.0
  387   0.2529357241661  -0.1180282021447     0.0     0.0
  388   1.2156317174948  -0.5860123275378     0.0     0.0
  389  15.0855427679190   1.8859992780292     0.0     0.0
  3904859.2040577498938  33.3397228137787     0.0     0.0
 MICROCYCLE DIIS UPDATE:                  390                    5
  391   0.0860464930449  -0.2946599540261     0.0     0.0
  392   0.2599659136293  -0.1125373725552     0.0     0.0
  393   1.2453538302318  -0.5917991790855     0.0     0.0
  394  15.9691204148552   1.9401736267443     0.0     0.0
  3955433.7264928797458  35.2603504768257     0.0     0.0
 MICROCYCLE DIIS UPDATE:                  395                    5
  396   0.0893690420790  -0.2959983383944     0.0     0.0
  397   0.2670352641275  -0.1068419857797     0.0     0.0
  398   1.2735786667817  -0.5972262407951     0.0     0.0
  399  16.8269102270361   1.9913822523506     0.0     0.0
  4006021.7025445279878  37.1236082480793     0.0     0.0
 MICROCYCLE DIIS UPDATE:                  400                    5
  401   0.0928215683729  -0.2973821088859     0.0     0.0
  402   0.2741513346395  -0.1009167157774     0.0     0.0
  403   1.3000495554441  -0.6022504442905     0.0     0.0
  404  17.6456911668963   2.0390946253034     0.0     0.0
  4056610.6935105914845  38.9010868208717     0.0     0.0
 MICROCYCLE DIIS UPDATE:                  405                    5
  406   0.0964211259094  -0.2988173572088     0.0     0.0
  407   0.2813224617350  -0.0947315418634     0.0     0.0
  408   1.3244565535870  -0.6068184033694     0.0     0.0
  409  18.4097113373576   2.0826710307503     0.0     0.0
  4107184.7316252863575  40.5589215778000     0.0     0.0
 MICROCYCLE DIIS UPDATE:                  410                    5
  411   0.1001881589764  -0.3003113617989     0.0     0.0
  412   0.2885579416703  -0.0882504522809     0.0     0.0
  413   1.3464212217419  -0.6108632886172     0.0     0.0
  414  19.1001084483150   2.1213312086208     0.0     0.0
  4157723.7494341965203  42.0565375005326     0.0     0.0
 MICROCYCLE DIIS UPDATE:                  415                    5
  416   0.1041475074652  -0.3018729376060     0.0     0.0
  417   0.2958682643890  -0.0814296659200     0.0     0.0
  418   1.3654756727204  -0.6143004320185     0.0     0.0
  419  19.6941603075354   2.1541111649520     0.0     0.0
  4208202.9881300104607  43.3450228682721     0.0     0.0
 MICROCYCLE DIIS UPDATE:                  420                    5
  421   0.1083298170749  -0.3035129257256     0.0     0.0
  422   0.3032654215893  -0.0742151368843     0.0     0.0
  423   1.3810331342763  -0.6170210019484     0.0     0.0
  424  20.1643039585383   2.1798024162322     0.0     0.0
  4258592.4343989684185  44.3649961262840     0.0     0.0
 MICROCYCLE DIIS UPDATE:                  425                    5
  426   0.1127735698311  -0.3052448968733     0.0     0.0
  427   0.3107633232118  -0.0665389600482     0.0     0.0
  428   1.3923455792128  -0.6188826547038     0.0     0.0
  429  20.4768358581812   2.1968644028540     0.0     0.0
  4308856.3831914145030  45.0437711336395     0.0     0.0
 MICROCYCLE DIIS UPDATE:                  430                    5
  431   0.1175280978940  -0.3070861931192     0.0     0.0
  432   0.3183783779848  -0.0583140339283     0.0     0.0
  433   1.3984410101124  -0.6196952768823     0.0     0.0
  434  20.5901670076932   2.2032945729547     0.0     0.0
  4358953.3119229448221  45.2915379855653     0.0     0.0
 MICROCYCLE DIIS UPDATE:                  435                    5
  436   0.1226582200841  -0.3090595265729     0.0     0.0
  437   0.3261303329191  -0.0494258465520     0.0     0.0
  438   1.3980275259453  -0.6191984159266     0.0     0.0
  439  20.4524514262212   2.1964291024334     0.0     0.0
  4408836.4158719970583  44.9961466838253     0.0     0.0
 MICROCYCLE DIIS UPDATE:                  440                    5
  441   0.1282516888147  -0.3111955402202     0.0     0.0
  442   0.3340435441658  -0.0397192766017     0.0     0.0
  443   1.3893407162826  -0.6170239148376     0.0     0.0
  444  19.9983309698236   2.1726247046287     0.0     0.0
  4458455.4666320484266  44.0158965699409     0.0     0.0
 MICROCYCLE DIIS UPDATE:                  445                    5
  446   0.1344318000093  -0.3135371313644     0.0     0.0
  447   0.3421490182876  -0.0289762331179     0.0     0.0
  448   1.3698891186329  -0.6126305490039     0.0     0.0
  449  19.1444572837879   2.1267251418149     0.0     0.0
  4507761.2623001852025  42.1695071889250     0.0     0.0
 MICROCYCLE DIIS UPDATE:                  450                    5
  451   0.1413802143074  -0.3161472501327     0.0     0.0
  452   0.3504879620490  -0.0168751669876     0.0     0.0
  453   1.3360040367551  -0.6051814727072     0.0     0.0
  454  17.7834516377619   2.0511106208594     0.0     0.0
  4556715.1472490794131  39.2223212225147     0.0     0.0
 MICROCYCLE DIIS UPDATE:                  455                    5
  456   0.1493819948299  -0.3191242313260     0.0     0.0
  457   0.3591186767228  -0.0029111195285     0.0     0.0
  458   1.2819820562796  -0.5932927052902     0.0     0.0
  459  15.7764787929561   1.9338662668527     0.0     0.0
  4605308.5325849969995  34.8685511077865     0.0     0.0
 MICROCYCLE DIIS UPDATE:                  460                    5
  461   0.1589256267262  -0.3226356905058     0.0     0.0
  462   0.3681322680936   0.0137819540270     0.0     0.0
  463   1.1982860172762  -0.5744492180332     0.0     0.0
  464  12.9477523796816   1.7548651182529     0.0     0.0
  4653602.2477585365655  28.7150016058947     0.0     0.0
 MICROCYCLE DIIS UPDATE:                  465                    5
  466   0.1709668848083  -0.3270074505512     0.0     0.0
  467   0.3776982653950   0.0349003107030     0.0     0.0
  468   1.0672503373126  -0.5433814206493     0.0     0.0
  469   9.1018576763209   1.4760626220091     0.0     0.0
  4701803.6371101241900  20.3047173048418     0.0     0.0
 MICROCYCLE DIIS UPDATE:                  470                    5
  471   0.1878510344998  -0.3330319777048     0.0     0.0
  472   0.3882625426033   0.0646118113452     0.0     0.0
  473   0.8510166515363  -0.4859929678659     0.0     0.0
  474   4.2053940486345   1.0114313040807     0.0     0.0
  475 392.2830698916328   9.4453815848935     0.0     0.0
 MICROCYCLE DIIS UPDATE:                  475                    5
  476   0.2190991790280  -0.3438771733762     0.0     0.0
  477   0.4025866012317   0.1198763711164     0.0     0.0
  478   0.4680030103511  -0.3366792236024     0.0     0.0
  479   0.4912943608323   0.0983521951100     0.0     0.0
  480   0.8232607029503  -0.4713675292315     0.0     0.0
 MICROCYCLE DIIS UPDATE:                  480                    5
  481   0.2584876774646  -0.0046938328745     0.0     0.0
  482   1.0393331908347  -0.5399996163313     0.0     0.0
  483   8.8718818079314   1.4555692467649     0.0     0.0
  4841715.2680794987559  19.7948410421145     0.0     0.0
  485******************3632.9787083629308     0.0     0.0
 MICROCYCLE DIIS UPDATE:                  485                    5
  486   0.2459404661242  -0.0534669938901     0.0     0.0
  487   1.1692982635010  -0.5727856249868     0.0     0.0
  488  13.0019853794169   1.7548808445520     0.0     0.0
  4893631.0541696176347  28.8192931272143     0.0     0.0
  490******************7679.5775014021765     0.0     0.0
 MICROCYCLE DIIS UPDATE:                  490                    5
  491   0.2367704126660  -0.0746762535035     0.0     0.0
  492   1.1768588102609  -0.5757856232092     0.0     0.0
  493  13.4966441345773   1.7864611531935     0.0     0.0
  4943906.6503962312995  29.8919444055147     0.0     0.0
  495******************8261.1473619654280     0.0     0.0
 MICROCYCLE DIIS UPDATE:                  495                    5
  496   0.2264173798246  -0.0923786441928     0.0     0.0
  497   1.1541379904091  -0.5720905503131     0.0     0.0
  498  13.0410162305387   1.7554704750372     0.0     0.0
  4993651.7326400082952  28.8953767093900     0.0     0.0
  500******************7722.4455345263386     0.0     0.0
 MICROCYCLE DIIS UPDATE:                  500                    5
  501   0.2153348428675  -0.1077920856212     0.0     0.0
  502   1.1127027523228  -0.5642302516710     0.0     0.0
  503  12.0313902987413   1.6861294510837     0.0     0.0
  5043117.4717492668497  26.6910069135673     0.0     0.0
  505******************6593.8712901105746     0.0     0.0
 MICROCYCLE DIIS UPDATE:                  505                    5
  506   0.2037514498813  -0.1215756362637     0.0     0.0
  507   1.0589624622153  -0.5535060968874     0.0     0.0
  508  10.7177420384792   1.5918031840043     0.0     0.0
  5092484.6286396928044  23.8198110486122     0.0     0.0
  510******************5257.0306373997446     0.0     0.0
 MICROCYCLE DIIS UPDATE:                  510                    5
  511   0.1917854549028  -0.1341430927942     0.0     0.0
  512   0.9968306401727  -0.5406627676306     0.0     0.0
  513   9.2643850905756   1.4806544378779     0.0     0.0
  5141866.6383698787331  20.6364118557272     0.0     0.0
  515******************3951.3802751399789     0.0     0.0
 MICROCYCLE DIIS UPDATE:                  515                    5
  516   0.1794926685561  -0.1457786694585     0.0     0.0
  517   0.9288256242214  -0.5261466752678     0.0     0.0
  518   7.7812675599663   1.3579598700620     0.0     0.0
  5191325.2469181791791  17.3775342435427     0.0     0.0
  520******************2807.2758675528189     0.0     0.0
 MICROCYCLE DIIS UPDATE:                  520                    5
  521   0.1668920068004  -0.1566884266067     0.0     0.0
  522   0.8566326980129  -0.5102290956696     0.0     0.0
  523   6.3429448656589   1.2272829517077     0.0     0.0
  524 886.7218718667111  14.2031626650121     0.0     0.0
  525******************1880.1991446937770     0.0     0.0
 MICROCYCLE DIIS UPDATE:                  525                    5
  526   0.1539866618873  -0.1670222731152     0.0     0.0
  527   0.7814634299488  -0.4930814876112     0.0     0.0
  528   5.0012904077567   1.0912097381365     0.0     0.0
  529 554.9431691895519  11.2239121737206     0.0     0.0
  530******************1178.3890826152144     0.0     0.0
 MICROCYCLE DIIS UPDATE:                  530                    5
  531   0.1407963930208  -0.1768744385064     0.0     0.0
  532   0.7043887342501  -0.4748490405307     0.0     0.0
  533   3.7948682574940   0.9520007591825     0.0     0.0
  534 320.8262455273317   8.5210784585887     0.0     0.0
  535****************** 682.7301568056777     0.0     0.0
 MICROCYCLE DIIS UPDATE:                  535                    5
  536   0.1274308772028  -0.1862530706963     0.0     0.0
  537   0.6268439256321  -0.4557791857760     0.0     0.0
  538   2.7567494907258   0.8125224517993     0.0     0.0
  539 168.5966612958636   6.1634274398722     0.0     0.0
  540****************** 359.9972194909141     0.0     0.0
 MICROCYCLE DIIS UPDATE:                  540                    5
  541   0.1142713006326  -0.1949872681398     0.0     0.0
  542   0.5516569059926  -0.4365180224122     0.0     0.0
  543   1.9213002245059   0.6780638803472     0.0     0.0
  544  79.6693750142040   4.2228714709441     0.0     0.0
  545****************** 171.0480257702790     0.0     0.0
 MICROCYCLE DIIS UPDATE:                  545                    5
  546   0.1023407736824  -0.2025382769248     0.0     0.0
  547   0.4849275624863  -0.4187143320112     0.0     0.0
  548   1.3251858850123   0.5595515258589     0.0     0.0
  549  34.9278149305943   2.7829551481639     0.0     0.0
  550******************  75.6357754643038     0.0     0.0
 MICROCYCLE DIIS UPDATE:                  550                    5
  551   0.0934763885981  -0.2079510006396     0.0     0.0
  552   0.4365263432891  -0.4053396400888     0.0     0.0
  553   0.9828961951748   0.4741724710209     0.0     0.0
  554  16.4971593988767   1.9026765166099     0.0     0.0
  5555751.2956553244803  36.1185246966145     0.0     0.0
 MICROCYCLE DIIS UPDATE:                  555                    5
  556   0.0884474827963  -0.2109583705830     0.0     0.0
  557   0.4097770307798  -0.3977680301810     0.0     0.0
  558   0.8283282061718   0.4272148304781     0.0     0.0
  559   9.9822510202317   1.4745773117795     0.0     0.0
  5602154.4296272060783  22.0645889608342     0.0     0.0
 MICROCYCLE DIIS UPDATE:                  560                    5
  561   0.0849770826260  -0.2130115006046     0.0     0.0
  562   0.3916929576444  -0.3925663917038     0.0     0.0
  563   0.7384765634207   0.3955428810575     0.0     0.0
  564   6.7376266286712   1.2082326560430     0.0     0.0
  5651003.2084540789954  15.0275641484096     0.0     0.0
 MICROCYCLE DIIS UPDATE:                  565                    5
  566   0.0816360572155  -0.2149661495071     0.0     0.0
  567   0.3743501245826  -0.3875118185817     0.0     0.0
  568   0.6638191982435   0.3652413845144     0.0     0.0
  569   4.3638864286885   0.9703229025717     0.0     0.0
  570 433.3571639615215   9.8496122241059     0.0     0.0
 MICROCYCLE DIIS UPDATE:                  570                    5
  571   0.0784887325065  -0.2167875414130     0.0     0.0
  572   0.3580985118097  -0.3827164306140     0.0     0.0
  573   0.6042564375312   0.3369208755450     0.0     0.0
  574   2.6982920225360   0.7629329108575     0.0     0.0
  575 172.5159896054179   6.1892893001283     0.0     0.0
 MICROCYCLE DIIS UPDATE:                  575                    5
  576   0.0754085224241  -0.2185515023005     0.0     0.0
  577   0.3423135264601  -0.3780019202053     0.0     0.0
  578   0.5559784157230   0.3094832040779     0.0     0.0
  579   1.5180056030856   0.5757938580408     0.0     0.0
  580  58.1501714927772   3.5691587088853     0.0     0.0
 MICROCYCLE DIIS UPDATE:                  580                    5
  581   0.0721821414260  -0.2203795997939     0.0     0.0
  582   0.3259188771127  -0.3730438264327     0.0     0.0
  583   0.5154822178643   0.2810618901237     0.0     0.0
  584   0.6748130922464   0.3962499350622     0.0     0.0
  585  12.9979790918405   1.6647307786083     0.0     0.0
 MICROCYCLE DIIS UPDATE:                  585                    5
  586   0.0683324574496  -0.2225358486880     0.0     0.0
  587   0.3065797325140  -0.3671103366609     0.0     0.0
  588   0.4793305415107   0.2476361311699     0.0     0.0
  589   0.1348309153779   0.2037059777565     0.0     0.0
  590   0.3175742177211   0.2862686016409     0.0     0.0
 MICROCYCLE DIIS UPDATE:                  590                    5
  591   0.0547385189578  -0.2299629991199     0.0     0.0
  592   0.2401026942080  -0.3459568503061     0.0     0.0
  593   0.4202022296392   0.1336693530700     0.0     0.0
  594   0.4213373247136  -0.3015103927544     0.0     0.0
  595   0.3963281691158  -0.0542313205925     0.0     0.0
 MICROCYCLE DIIS UPDATE:                  595                    5
  596   0.0768136732888  -0.2178769956495     0.0     0.0
  597   0.3514436242092  -0.3806536149629     0.0     0.0
  598   0.5823936208700   0.3249319772738     0.0     0.0
  599   2.1280547985161   0.6785906120287     0.0     0.0
  600 109.8954883759565   4.9275596399463     0.0     0.0
 MICROCYCLE DIIS UPDATE:                  600                    5
  601   0.0684847953207  -0.2224882455118     0.0     0.0
  602   0.3079994386560  -0.3675095545914     0.0     0.0
  603   0.4816756005045   0.2499205119936     0.0     0.0
  604   0.1497914587726   0.2158718334126     0.0     0.0
  605   0.5430522869376   0.3528752201367     0.0     0.0
 MICROCYCLE DIIS UPDATE:                  605                    5
  606   0.0538672732756  -0.2305015899595     0.0     0.0
  607   0.2362923123219  -0.3446585241934     0.0     0.0
  608   0.4185792456552   0.1269999153757     0.0     0.0
  609   0.4512133423695  -0.3241214101236     0.0     0.0
  610   0.4671837056503   0.0419097033406     0.0     0.0
 MICROCYCLE DIIS UPDATE:                  610                    5
  611   0.0777220963388  -0.2174263763397     0.0     0.0
  612   0.3567808012876  -0.3821943839258     0.0     0.0
  613   0.5991922613438   0.3339942478515     0.0     0.0
  614   2.5428328084835   0.7409083501599     0.0     0.0
  615 154.0957960457625   5.8461983908207     0.0     0.0
 MICROCYCLE DIIS UPDATE:                  615                    5
  616   0.0685692820795  -0.2224604773568     0.0     0.0
  617   0.3087723839743  -0.3677231369044     0.0     0.0
  618   0.4829697046226   0.2511511733761     0.0     0.0
  619   0.1598200463615   0.2224472157305     0.0     0.0
  620   0.6861620070404   0.3900096163032     0.0     0.0
 MICROCYCLE DIIS UPDATE:                  620                    5
  621   0.0536458449050  -0.2306630600214     0.0     0.0
  622   0.2353206918280  -0.3443119666371     0.0     0.0
  623   0.4182326205628   0.1252443875174     0.0     0.0
  624   0.4600841317083  -0.3300134354010     0.0     0.0
  625   0.4795664003036   0.0685297806500     0.0     0.0
 MICROCYCLE DIIS UPDATE:                  625                    5
  626   0.0802284180887  -0.2160350946019     0.0     0.0
  627   0.3701498244419  -0.3861261921384     0.0     0.0
  628   0.6463175074000   0.3571617858905     0.0     0.0
  629   3.8223828996461   0.9079414484942     0.0     0.0
  630 335.9203267690435   8.6634198235691     0.0     0.0
 MICROCYCLE DIIS UPDATE:                  630                    5
  631   0.0691753031884  -0.2221301525493     0.0     0.0
  632   0.3119844313389  -0.3686993523458     0.0     0.0
  633   0.4883746566558   0.2566401842317     0.0     0.0
  634   0.2201619153009   0.2529155023395     0.0     0.0
  635   1.5692366376715   0.5728796286293     0.0     0.0
 MICROCYCLE DIIS UPDATE:                  635                    5
  636   0.0598554208931  -0.2272909537584     0.0     0.0
  637   0.2656249901643  -0.3541434117923     0.0     0.0
  638   0.4352999884562   0.1769222765928     0.0     0.0
  639   0.3390608025297  -0.1378674146413     0.0     0.0
  640   0.6679783395301  -0.4650352601685     0.0     0.0
 MICROCYCLE DIIS UPDATE:                  640                    5
  641   0.0497368404054  -0.2326164292202     0.0     0.0
  642   0.2157343038396  -0.3379288915467     0.0     0.0
  643   0.4082996673213   0.0924756262083     0.0     0.0
  644   0.6676925123975  -0.4263476591169     0.0     0.0
  645   1.4727955421898   0.5970380837289     0.0     0.0
 MICROCYCLE DIIS UPDATE:                  645                    5
  646   0.0585454246954  -0.2279994647897     0.0     0.0
  647   0.2593813660928  -0.3521136941468     0.0     0.0
  648   0.4312639391206   0.1661682260280     0.0     0.0
  649   0.3484076673144  -0.1819517705031     0.0     0.0
  650   0.4314074310912  -0.4036822981193     0.0     0.0
 MICROCYCLE DIIS UPDATE:                  650                    5
  651   0.0376110930362  -0.2389043337553     0.0     0.0
  652   0.1591465052048  -0.3185460731215     0.0     0.0
  653   0.3673817954693  -0.0022246382410     0.0     0.0
  654   1.3039802504012  -0.5975844716005     0.0     0.0
  655  16.4723399858579   1.9755727562267     0.0     0.0
 MICROCYCLE DIIS UPDATE:                  655                    5
  656   0.0278739100762  -0.2438235005336     0.0     0.0
  657   0.1155341876606  -0.3028862806371     0.0     0.0
  658   0.3083714225190  -0.0739262816506     0.0     0.0
  659   1.3961454815304  -0.6198124915325     0.0     0.0
  660  20.6927509291088   2.2080393840331     0.0     0.0
 MICROCYCLE DIIS UPDATE:                  660                    5
  661   0.0198429029794  -0.2477831495049     0.0     0.0
  662   0.0807174108879  -0.2898294458048     0.0     0.0
  663   0.2393778790740  -0.1302830404398     0.0     0.0
  664   1.1481254374927  -0.5725579600365     0.0     0.0
  665  13.1580201163113   1.7621887656798     0.0     0.0
 MICROCYCLE DIIS UPDATE:                  665                    5
  666   0.0148980360397  -0.2501931392296     0.0     0.0
  667   0.0598785311944  -0.2817566914646     0.0     0.0
  668   0.1881923200251  -0.1636005590325     0.0     0.0
  669   0.8896154061894  -0.5178301189338     0.0     0.0
  670   6.9832911966430   1.2874442412611     0.0     0.0
 MICROCYCLE DIIS UPDATE:                  670                    5
  671   0.0108816367614  -0.2521336375663     0.0     0.0
  672   0.0433034138063  -0.2751846453698     0.0     0.0
  673   0.1421491134929  -0.1898592236936     0.0     0.0
  674   0.6469383207947  -0.4606840007354     0.0     0.0
  675   2.9889858829881   0.8462808796828     0.0     0.0
 MICROCYCLE DIIS UPDATE:                  675                    5
  676   0.0072611735759  -0.2538695522466     0.0     0.0
  677   0.0286347619717  -0.2692494867292     0.0     0.0
  678   0.0974951161168  -0.2129047906988     0.0     0.0
  679   0.4201124541967  -0.4003602140717     0.0     0.0
  680   0.8762791147945   0.4425251392673     0.0     0.0
 MICROCYCLE DIIS UPDATE:                  680                    5
  681   0.0035794912752  -0.2556222893405     0.0     0.0
  682   0.0139839958297  -0.2632034324589     0.0     0.0
  683   0.0492912391932  -0.2357284555638     0.0     0.0
  684   0.1967066609412  -0.3312536435256     0.0     0.0
  685   0.3983918440816   0.0590013227339     0.0     0.0
 MICROCYCLE DIIS UPDATE:                  685                    5
  686   0.0008740978789  -0.2577255097120     0.0     0.0
  687   0.0033714398168  -0.2558797999070     0.0     0.0
  688   0.0123582450012  -0.2624939789974     0.0     0.0
  689   0.0435450254441  -0.2383504380875     0.0     0.0
  690   0.1718963680951  -0.3227505109380     0.0     0.0
 MICROCYCLE DIIS UPDATE:                  690                    5
  691   0.0002691047089  -0.2574437135325     0.0     0.0
  692   0.0010424388463  -0.2568739804286     0.0     0.0
  693   0.0038000980338  -0.2589185728586     0.0     0.0
  694   0.0136475116378  -0.2515022882594     0.0     0.0
  695   0.0508420817846  -0.2780618821481     0.0     0.0
 MICROCYCLE DIIS UPDATE:                  695                    5
  696   0.0000442232425  -0.2572969797747     0.0     0.0
  697   0.0001715388981  -0.2573904050739     0.0     0.0
  698   0.0006236429223  -0.2570540226332     0.0     0.0
  699   0.0022613051675  -0.2582703327312     0.0     0.0
  700   0.0081449920461  -0.2538609842811     0.0     0.0
 MICROCYCLE DIIS UPDATE:                  700                    5
  701   0.0000034653126  -0.2573159013478     0.0     0.0
  702   0.0000134360600  -0.2573232345617     0.0     0.0
  703   0.0000488639151  -0.2572968801725     0.0     0.0
  704   0.0001769674054  -0.2573921981566     0.0     0.0
  705   0.0006403198689  -0.2570472062208     0.0     0.0
 MICROCYCLE DIIS UPDATE:                  705                    5
  706   0.0000000490995  -0.2573174987923     0.0     0.0
 --------------------------------------------------------
 Iterations converged
 CISD correlation energy / hartree =        -0.257317498792294
 CISD total energy / hartree       =        -0.998668777085714

 Singles contributions
     4b1u (alpha) ---     1b1u (alpha)       -0.1553798059

 Doubles contributions
     2ag  (alpha)     2ag  (beta ) ---     1b1u (alpha)     1b1u (beta )       -0.9998221322
     2ag  (alpha)     3ag  (beta ) ---     1b1u (alpha)     1b1u (beta )        0.1555632401
     3ag  (alpha)     2ag  (beta ) ---     1b1u (alpha)     1b1u (beta )        0.1555632401

 Parallel integral file used       4 records with       0 large values


 Task  times  cpu:        2.1s     wall:        2.1s


                                NWChem Input Module
                                -------------------


 Summary of allocated global arrays
-----------------------------------
  No active global arrays


MA_summarize_allocated_blocks: starting scan ...
MA_summarize_allocated_blocks: scan completed: 0 heap blocks, 0 stack blocks
MA usage statistics:

	allocation statistics:
					      heap	     stack
					      ----	     -----
	current number of blocks	         0	         0
	maximum number of blocks	        18	        25
	current total bytes		         0	         0
	maximum total bytes		   1579328	  22509416
	maximum total K-bytes		      1580	     22510
	maximum total M-bytes		         2	        23


                                     CITATION
                                     --------
                Please cite the following reference when publishing
                           results obtained with NWChem:

          E. Apra, E. J. Bylaska, W. A. de Jong, N. Govind, K. Kowalski,
       T. P. Straatsma, M. Valiev, H. J. J. van Dam, Y. Alexeev, J. Anchell,
       V. Anisimov, F. W. Aquino, R. Atta-Fynn, J. Autschbach, N. P. Bauman,
     J. C. Becca, D. E. Bernholdt, K. Bhaskaran-Nair, S. Bogatko, P. Borowski,
         J. Boschen, J. Brabec, A. Bruner, E. Cauet, Y. Chen, G. N. Chuev,
      C. J. Cramer, J. Daily, M. J. O. Deegan, T. H. Dunning Jr., M. Dupuis,
   K. G. Dyall, G. I. Fann, S. A. Fischer, A. Fonari, H. Fruchtl, L. Gagliardi,
      J. Garza, N. Gawande, S. Ghosh, K. Glaesemann, A. W. Gotz, J. Hammond,
       V. Helms, E. D. Hermes, K. Hirao, S. Hirata, M. Jacquelin, L. Jensen,
   B. G. Johnson, H. Jonsson, R. A. Kendall, M. Klemm, R. Kobayashi, V. Konkov,
      S. Krishnamoorthy, M. Krishnan, Z. Lin, R. D. Lins, R. J. Littlefield,
      A. J. Logsdail, K. Lopata, W. Ma, A. V. Marenich, J. Martin del Campo,
   D. Mejia-Rodriguez, J. E. Moore, J. M. Mullin, T. Nakajima, D. R. Nascimento,
    J. A. Nichols, P. J. Nichols, J. Nieplocha, A. Otero-de-la-Roza, B. Palmer,
    A. Panyala, T. Pirojsirikul, B. Peng, R. Peverati, J. Pittner, L. Pollack,
   R. M. Richard, P. Sadayappan, G. C. Schatz, W. A. Shelton, D. W. Silverstein,
   D. M. A. Smith, T. A. Soares, D. Song, M. Swart, H. L. Taylor, G. S. Thomas,
            V. Tipparaju, D. G. Truhlar, K. Tsemekhman, T. Van Voorhis,
      A. Vazquez-Mayagoitia, P. Verma, O. Villa, A. Vishnu, K. D. Vogiatzis,
        D. Wang, J. H. Weare, M. J. Williamson, T. L. Windus, K. Wolinski,
        A. T. Wong, Q. Wu, C. Yang, Q. Yu, M. Zacharias, Z. Zhang, Y. Zhao,
                                and R. J. Harrison
                        "NWChem: Past, present, and future
                         J. Chem. Phys. 152, 184102 (2020)
                               doi:10.1063/5.0004997

                                      AUTHORS
                                      -------
  E. Apra, E. J. Bylaska, N. Govind, K. Kowalski, M. Valiev, D. Mejia-Rodriguez,
       A. Kunitsa, N. P. Bauman, A. Panyala, W. A. de Jong, T. P. Straatsma,
   H. J. J. van Dam, D. Wang, T. L. Windus, J. Hammond, J. Autschbach, A. Woods,
    K. Bhaskaran-Nair, J. Brabec, K. Lopata, S. A. Fischer, S. Krishnamoorthy,
     M. Jacquelin, W. Ma, M. Klemm, O. Villa, Y. Chen, V. Anisimov, F. Aquino,
     S. Hirata, M. T. Hackler, E. Hermes, L. Jensen, J. E. Moore, J. C. Becca,
      V. Konjkov, T. Risthaus, M. Malagoli, A. Marenich, A. Otero-de-la-Roza,
        J. Mullin, P. Nichols, R. Peverati, J. Pittner, Y. Zhao, P.-D. Fan,
        A. Fonari, M. J. Williamson, R. J. Harrison, J. R. Rehr, M. Dupuis,
     D. Silverstein, D. M. A. Smith, J. Nieplocha, V. Tipparaju, M. Krishnan,
     B. E. Van Kuiken, A. Vazquez-Mayagoitia, M. Swart, Q. Wu, T. Van Voorhis,
     A. A. Auer, M. Nooijen, L. D. Crosby, E. Brown, G. Cisneros, G. I. Fann,
   H. Fruchtl, J. Garza, K. Hirao, R. A. Kendall, J. A. Nichols, K. Tsemekhman,
    K. Wolinski, J. Anchell, D. E. Bernholdt, P. Borowski, T. Clark, D. Clerc,
   H. Dachsel, M. J. O. Deegan, K. Dyall, D. Elwood, E. Glendening, M. Gutowski,
   A. C. Hess, J. Jaffe, B. G. Johnson, J. Ju, R. Kobayashi, R. Kutteh, Z. Lin,
   R. Littlefield, X. Long, B. Meng, T. Nakajima, S. Niu, L. Pollack, M. Rosing,
   K. Glaesemann, G. Sandrone, M. Stave, H. Taylor, G. Thomas, J. H. van Lenthe,
                               A. T. Wong, Z. Zhang.

 Total times  cpu:        2.1s     wall:        2.1s
